rho13.3-121212.lmp (written by ASE) 

1728 	 atoms 
1  atom types
0.0      22.924955252501917  xlo xhi
0.0      22.924955252501917  ylo yhi
0.0      22.924955252501917  zlo zhi


Atoms 

     1   1                       0                       0                       0
     2   1                       0                       0      1.9104129377084931
     3   1                       0                       0      3.8208258754169862
     4   1                       0                       0      5.7312388131254792
     5   1                       0                       0      7.6416517508339723
     6   1                       0                       0      9.5520646885424654
     7   1                       0                       0      11.462477626250957
     8   1                       0                       0       13.37289056395945
     9   1                       0                       0      15.283303501667945
    10   1                       0                       0      17.193716439376438
    11   1                       0                       0      19.104129377084931
    12   1                       0                       0      21.014542314793424
    13   1                       0      1.9104129377084931                       0
    14   1                       0      1.9104129377084931      1.9104129377084931
    15   1                       0      1.9104129377084931      3.8208258754169862
    16   1                       0      1.9104129377084931      5.7312388131254792
    17   1                       0      1.9104129377084931      7.6416517508339723
    18   1                       0      1.9104129377084931      9.5520646885424654
    19   1                       0      1.9104129377084931      11.462477626250957
    20   1                       0      1.9104129377084931       13.37289056395945
    21   1                       0      1.9104129377084931      15.283303501667945
    22   1                       0      1.9104129377084931      17.193716439376438
    23   1                       0      1.9104129377084931      19.104129377084931
    24   1                       0      1.9104129377084931      21.014542314793424
    25   1                       0      3.8208258754169862                       0
    26   1                       0      3.8208258754169862      1.9104129377084931
    27   1                       0      3.8208258754169862      3.8208258754169862
    28   1                       0      3.8208258754169862      5.7312388131254792
    29   1                       0      3.8208258754169862      7.6416517508339723
    30   1                       0      3.8208258754169862      9.5520646885424654
    31   1                       0      3.8208258754169862      11.462477626250957
    32   1                       0      3.8208258754169862       13.37289056395945
    33   1                       0      3.8208258754169862      15.283303501667945
    34   1                       0      3.8208258754169862      17.193716439376438
    35   1                       0      3.8208258754169862      19.104129377084931
    36   1                       0      3.8208258754169862      21.014542314793424
    37   1                       0      5.7312388131254792                       0
    38   1                       0      5.7312388131254792      1.9104129377084931
    39   1                       0      5.7312388131254792      3.8208258754169862
    40   1                       0      5.7312388131254792      5.7312388131254792
    41   1                       0      5.7312388131254792      7.6416517508339723
    42   1                       0      5.7312388131254792      9.5520646885424654
    43   1                       0      5.7312388131254792      11.462477626250957
    44   1                       0      5.7312388131254792       13.37289056395945
    45   1                       0      5.7312388131254792      15.283303501667945
    46   1                       0      5.7312388131254792      17.193716439376438
    47   1                       0      5.7312388131254792      19.104129377084931
    48   1                       0      5.7312388131254792      21.014542314793424
    49   1                       0      7.6416517508339723                       0
    50   1                       0      7.6416517508339723      1.9104129377084931
    51   1                       0      7.6416517508339723      3.8208258754169862
    52   1                       0      7.6416517508339723      5.7312388131254792
    53   1                       0      7.6416517508339723      7.6416517508339723
    54   1                       0      7.6416517508339723      9.5520646885424654
    55   1                       0      7.6416517508339723      11.462477626250957
    56   1                       0      7.6416517508339723       13.37289056395945
    57   1                       0      7.6416517508339723      15.283303501667945
    58   1                       0      7.6416517508339723      17.193716439376438
    59   1                       0      7.6416517508339723      19.104129377084931
    60   1                       0      7.6416517508339723      21.014542314793424
    61   1                       0      9.5520646885424654                       0
    62   1                       0      9.5520646885424654      1.9104129377084931
    63   1                       0      9.5520646885424654      3.8208258754169862
    64   1                       0      9.5520646885424654      5.7312388131254792
    65   1                       0      9.5520646885424654      7.6416517508339723
    66   1                       0      9.5520646885424654      9.5520646885424654
    67   1                       0      9.5520646885424654      11.462477626250957
    68   1                       0      9.5520646885424654       13.37289056395945
    69   1                       0      9.5520646885424654      15.283303501667945
    70   1                       0      9.5520646885424654      17.193716439376438
    71   1                       0      9.5520646885424654      19.104129377084931
    72   1                       0      9.5520646885424654      21.014542314793424
    73   1                       0      11.462477626250957                       0
    74   1                       0      11.462477626250957      1.9104129377084931
    75   1                       0      11.462477626250957      3.8208258754169862
    76   1                       0      11.462477626250957      5.7312388131254792
    77   1                       0      11.462477626250957      7.6416517508339723
    78   1                       0      11.462477626250957      9.5520646885424654
    79   1                       0      11.462477626250957      11.462477626250957
    80   1                       0      11.462477626250957       13.37289056395945
    81   1                       0      11.462477626250957      15.283303501667945
    82   1                       0      11.462477626250957      17.193716439376438
    83   1                       0      11.462477626250957      19.104129377084931
    84   1                       0      11.462477626250957      21.014542314793424
    85   1                       0       13.37289056395945                       0
    86   1                       0       13.37289056395945      1.9104129377084931
    87   1                       0       13.37289056395945      3.8208258754169862
    88   1                       0       13.37289056395945      5.7312388131254792
    89   1                       0       13.37289056395945      7.6416517508339723
    90   1                       0       13.37289056395945      9.5520646885424654
    91   1                       0       13.37289056395945      11.462477626250957
    92   1                       0       13.37289056395945       13.37289056395945
    93   1                       0       13.37289056395945      15.283303501667945
    94   1                       0       13.37289056395945      17.193716439376438
    95   1                       0       13.37289056395945      19.104129377084931
    96   1                       0       13.37289056395945      21.014542314793424
    97   1                       0      15.283303501667945                       0
    98   1                       0      15.283303501667945      1.9104129377084931
    99   1                       0      15.283303501667945      3.8208258754169862
   100   1                       0      15.283303501667945      5.7312388131254792
   101   1                       0      15.283303501667945      7.6416517508339723
   102   1                       0      15.283303501667945      9.5520646885424654
   103   1                       0      15.283303501667945      11.462477626250957
   104   1                       0      15.283303501667945       13.37289056395945
   105   1                       0      15.283303501667945      15.283303501667945
   106   1                       0      15.283303501667945      17.193716439376438
   107   1                       0      15.283303501667945      19.104129377084931
   108   1                       0      15.283303501667945      21.014542314793424
   109   1                       0      17.193716439376438                       0
   110   1                       0      17.193716439376438      1.9104129377084931
   111   1                       0      17.193716439376438      3.8208258754169862
   112   1                       0      17.193716439376438      5.7312388131254792
   113   1                       0      17.193716439376438      7.6416517508339723
   114   1                       0      17.193716439376438      9.5520646885424654
   115   1                       0      17.193716439376438      11.462477626250957
   116   1                       0      17.193716439376438       13.37289056395945
   117   1                       0      17.193716439376438      15.283303501667945
   118   1                       0      17.193716439376438      17.193716439376438
   119   1                       0      17.193716439376438      19.104129377084931
   120   1                       0      17.193716439376438      21.014542314793424
   121   1                       0      19.104129377084931                       0
   122   1                       0      19.104129377084931      1.9104129377084931
   123   1                       0      19.104129377084931      3.8208258754169862
   124   1                       0      19.104129377084931      5.7312388131254792
   125   1                       0      19.104129377084931      7.6416517508339723
   126   1                       0      19.104129377084931      9.5520646885424654
   127   1                       0      19.104129377084931      11.462477626250957
   128   1                       0      19.104129377084931       13.37289056395945
   129   1                       0      19.104129377084931      15.283303501667945
   130   1                       0      19.104129377084931      17.193716439376438
   131   1                       0      19.104129377084931      19.104129377084931
   132   1                       0      19.104129377084931      21.014542314793424
   133   1                       0      21.014542314793424                       0
   134   1                       0      21.014542314793424      1.9104129377084931
   135   1                       0      21.014542314793424      3.8208258754169862
   136   1                       0      21.014542314793424      5.7312388131254792
   137   1                       0      21.014542314793424      7.6416517508339723
   138   1                       0      21.014542314793424      9.5520646885424654
   139   1                       0      21.014542314793424      11.462477626250957
   140   1                       0      21.014542314793424       13.37289056395945
   141   1                       0      21.014542314793424      15.283303501667945
   142   1                       0      21.014542314793424      17.193716439376438
   143   1                       0      21.014542314793424      19.104129377084931
   144   1                       0      21.014542314793424      21.014542314793424
   145   1      1.9104129377084931                       0                       0
   146   1      1.9104129377084931                       0      1.9104129377084931
   147   1      1.9104129377084931                       0      3.8208258754169862
   148   1      1.9104129377084931                       0      5.7312388131254792
   149   1      1.9104129377084931                       0      7.6416517508339723
   150   1      1.9104129377084931                       0      9.5520646885424654
   151   1      1.9104129377084931                       0      11.462477626250957
   152   1      1.9104129377084931                       0       13.37289056395945
   153   1      1.9104129377084931                       0      15.283303501667945
   154   1      1.9104129377084931                       0      17.193716439376438
   155   1      1.9104129377084931                       0      19.104129377084931
   156   1      1.9104129377084931                       0      21.014542314793424
   157   1      1.9104129377084931      1.9104129377084931                       0
   158   1      1.9104129377084931      1.9104129377084931      1.9104129377084931
   159   1      1.9104129377084931      1.9104129377084931      3.8208258754169862
   160   1      1.9104129377084931      1.9104129377084931      5.7312388131254792
   161   1      1.9104129377084931      1.9104129377084931      7.6416517508339723
   162   1      1.9104129377084931      1.9104129377084931      9.5520646885424654
   163   1      1.9104129377084931      1.9104129377084931      11.462477626250957
   164   1      1.9104129377084931      1.9104129377084931       13.37289056395945
   165   1      1.9104129377084931      1.9104129377084931      15.283303501667945
   166   1      1.9104129377084931      1.9104129377084931      17.193716439376438
   167   1      1.9104129377084931      1.9104129377084931      19.104129377084931
   168   1      1.9104129377084931      1.9104129377084931      21.014542314793424
   169   1      1.9104129377084931      3.8208258754169862                       0
   170   1      1.9104129377084931      3.8208258754169862      1.9104129377084931
   171   1      1.9104129377084931      3.8208258754169862      3.8208258754169862
   172   1      1.9104129377084931      3.8208258754169862      5.7312388131254792
   173   1      1.9104129377084931      3.8208258754169862      7.6416517508339723
   174   1      1.9104129377084931      3.8208258754169862      9.5520646885424654
   175   1      1.9104129377084931      3.8208258754169862      11.462477626250957
   176   1      1.9104129377084931      3.8208258754169862       13.37289056395945
   177   1      1.9104129377084931      3.8208258754169862      15.283303501667945
   178   1      1.9104129377084931      3.8208258754169862      17.193716439376438
   179   1      1.9104129377084931      3.8208258754169862      19.104129377084931
   180   1      1.9104129377084931      3.8208258754169862      21.014542314793424
   181   1      1.9104129377084931      5.7312388131254792                       0
   182   1      1.9104129377084931      5.7312388131254792      1.9104129377084931
   183   1      1.9104129377084931      5.7312388131254792      3.8208258754169862
   184   1      1.9104129377084931      5.7312388131254792      5.7312388131254792
   185   1      1.9104129377084931      5.7312388131254792      7.6416517508339723
   186   1      1.9104129377084931      5.7312388131254792      9.5520646885424654
   187   1      1.9104129377084931      5.7312388131254792      11.462477626250957
   188   1      1.9104129377084931      5.7312388131254792       13.37289056395945
   189   1      1.9104129377084931      5.7312388131254792      15.283303501667945
   190   1      1.9104129377084931      5.7312388131254792      17.193716439376438
   191   1      1.9104129377084931      5.7312388131254792      19.104129377084931
   192   1      1.9104129377084931      5.7312388131254792      21.014542314793424
   193   1      1.9104129377084931      7.6416517508339723                       0
   194   1      1.9104129377084931      7.6416517508339723      1.9104129377084931
   195   1      1.9104129377084931      7.6416517508339723      3.8208258754169862
   196   1      1.9104129377084931      7.6416517508339723      5.7312388131254792
   197   1      1.9104129377084931      7.6416517508339723      7.6416517508339723
   198   1      1.9104129377084931      7.6416517508339723      9.5520646885424654
   199   1      1.9104129377084931      7.6416517508339723      11.462477626250957
   200   1      1.9104129377084931      7.6416517508339723       13.37289056395945
   201   1      1.9104129377084931      7.6416517508339723      15.283303501667945
   202   1      1.9104129377084931      7.6416517508339723      17.193716439376438
   203   1      1.9104129377084931      7.6416517508339723      19.104129377084931
   204   1      1.9104129377084931      7.6416517508339723      21.014542314793424
   205   1      1.9104129377084931      9.5520646885424654                       0
   206   1      1.9104129377084931      9.5520646885424654      1.9104129377084931
   207   1      1.9104129377084931      9.5520646885424654      3.8208258754169862
   208   1      1.9104129377084931      9.5520646885424654      5.7312388131254792
   209   1      1.9104129377084931      9.5520646885424654      7.6416517508339723
   210   1      1.9104129377084931      9.5520646885424654      9.5520646885424654
   211   1      1.9104129377084931      9.5520646885424654      11.462477626250957
   212   1      1.9104129377084931      9.5520646885424654       13.37289056395945
   213   1      1.9104129377084931      9.5520646885424654      15.283303501667945
   214   1      1.9104129377084931      9.5520646885424654      17.193716439376438
   215   1      1.9104129377084931      9.5520646885424654      19.104129377084931
   216   1      1.9104129377084931      9.5520646885424654      21.014542314793424
   217   1      1.9104129377084931      11.462477626250957                       0
   218   1      1.9104129377084931      11.462477626250957      1.9104129377084931
   219   1      1.9104129377084931      11.462477626250957      3.8208258754169862
   220   1      1.9104129377084931      11.462477626250957      5.7312388131254792
   221   1      1.9104129377084931      11.462477626250957      7.6416517508339723
   222   1      1.9104129377084931      11.462477626250957      9.5520646885424654
   223   1      1.9104129377084931      11.462477626250957      11.462477626250957
   224   1      1.9104129377084931      11.462477626250957       13.37289056395945
   225   1      1.9104129377084931      11.462477626250957      15.283303501667945
   226   1      1.9104129377084931      11.462477626250957      17.193716439376438
   227   1      1.9104129377084931      11.462477626250957      19.104129377084931
   228   1      1.9104129377084931      11.462477626250957      21.014542314793424
   229   1      1.9104129377084931       13.37289056395945                       0
   230   1      1.9104129377084931       13.37289056395945      1.9104129377084931
   231   1      1.9104129377084931       13.37289056395945      3.8208258754169862
   232   1      1.9104129377084931       13.37289056395945      5.7312388131254792
   233   1      1.9104129377084931       13.37289056395945      7.6416517508339723
   234   1      1.9104129377084931       13.37289056395945      9.5520646885424654
   235   1      1.9104129377084931       13.37289056395945      11.462477626250957
   236   1      1.9104129377084931       13.37289056395945       13.37289056395945
   237   1      1.9104129377084931       13.37289056395945      15.283303501667945
   238   1      1.9104129377084931       13.37289056395945      17.193716439376438
   239   1      1.9104129377084931       13.37289056395945      19.104129377084931
   240   1      1.9104129377084931       13.37289056395945      21.014542314793424
   241   1      1.9104129377084931      15.283303501667945                       0
   242   1      1.9104129377084931      15.283303501667945      1.9104129377084931
   243   1      1.9104129377084931      15.283303501667945      3.8208258754169862
   244   1      1.9104129377084931      15.283303501667945      5.7312388131254792
   245   1      1.9104129377084931      15.283303501667945      7.6416517508339723
   246   1      1.9104129377084931      15.283303501667945      9.5520646885424654
   247   1      1.9104129377084931      15.283303501667945      11.462477626250957
   248   1      1.9104129377084931      15.283303501667945       13.37289056395945
   249   1      1.9104129377084931      15.283303501667945      15.283303501667945
   250   1      1.9104129377084931      15.283303501667945      17.193716439376438
   251   1      1.9104129377084931      15.283303501667945      19.104129377084931
   252   1      1.9104129377084931      15.283303501667945      21.014542314793424
   253   1      1.9104129377084931      17.193716439376438                       0
   254   1      1.9104129377084931      17.193716439376438      1.9104129377084931
   255   1      1.9104129377084931      17.193716439376438      3.8208258754169862
   256   1      1.9104129377084931      17.193716439376438      5.7312388131254792
   257   1      1.9104129377084931      17.193716439376438      7.6416517508339723
   258   1      1.9104129377084931      17.193716439376438      9.5520646885424654
   259   1      1.9104129377084931      17.193716439376438      11.462477626250957
   260   1      1.9104129377084931      17.193716439376438       13.37289056395945
   261   1      1.9104129377084931      17.193716439376438      15.283303501667945
   262   1      1.9104129377084931      17.193716439376438      17.193716439376438
   263   1      1.9104129377084931      17.193716439376438      19.104129377084931
   264   1      1.9104129377084931      17.193716439376438      21.014542314793424
   265   1      1.9104129377084931      19.104129377084931                       0
   266   1      1.9104129377084931      19.104129377084931      1.9104129377084931
   267   1      1.9104129377084931      19.104129377084931      3.8208258754169862
   268   1      1.9104129377084931      19.104129377084931      5.7312388131254792
   269   1      1.9104129377084931      19.104129377084931      7.6416517508339723
   270   1      1.9104129377084931      19.104129377084931      9.5520646885424654
   271   1      1.9104129377084931      19.104129377084931      11.462477626250957
   272   1      1.9104129377084931      19.104129377084931       13.37289056395945
   273   1      1.9104129377084931      19.104129377084931      15.283303501667945
   274   1      1.9104129377084931      19.104129377084931      17.193716439376438
   275   1      1.9104129377084931      19.104129377084931      19.104129377084931
   276   1      1.9104129377084931      19.104129377084931      21.014542314793424
   277   1      1.9104129377084931      21.014542314793424                       0
   278   1      1.9104129377084931      21.014542314793424      1.9104129377084931
   279   1      1.9104129377084931      21.014542314793424      3.8208258754169862
   280   1      1.9104129377084931      21.014542314793424      5.7312388131254792
   281   1      1.9104129377084931      21.014542314793424      7.6416517508339723
   282   1      1.9104129377084931      21.014542314793424      9.5520646885424654
   283   1      1.9104129377084931      21.014542314793424      11.462477626250957
   284   1      1.9104129377084931      21.014542314793424       13.37289056395945
   285   1      1.9104129377084931      21.014542314793424      15.283303501667945
   286   1      1.9104129377084931      21.014542314793424      17.193716439376438
   287   1      1.9104129377084931      21.014542314793424      19.104129377084931
   288   1      1.9104129377084931      21.014542314793424      21.014542314793424
   289   1      3.8208258754169862                       0                       0
   290   1      3.8208258754169862                       0      1.9104129377084931
   291   1      3.8208258754169862                       0      3.8208258754169862
   292   1      3.8208258754169862                       0      5.7312388131254792
   293   1      3.8208258754169862                       0      7.6416517508339723
   294   1      3.8208258754169862                       0      9.5520646885424654
   295   1      3.8208258754169862                       0      11.462477626250957
   296   1      3.8208258754169862                       0       13.37289056395945
   297   1      3.8208258754169862                       0      15.283303501667945
   298   1      3.8208258754169862                       0      17.193716439376438
   299   1      3.8208258754169862                       0      19.104129377084931
   300   1      3.8208258754169862                       0      21.014542314793424
   301   1      3.8208258754169862      1.9104129377084931                       0
   302   1      3.8208258754169862      1.9104129377084931      1.9104129377084931
   303   1      3.8208258754169862      1.9104129377084931      3.8208258754169862
   304   1      3.8208258754169862      1.9104129377084931      5.7312388131254792
   305   1      3.8208258754169862      1.9104129377084931      7.6416517508339723
   306   1      3.8208258754169862      1.9104129377084931      9.5520646885424654
   307   1      3.8208258754169862      1.9104129377084931      11.462477626250957
   308   1      3.8208258754169862      1.9104129377084931       13.37289056395945
   309   1      3.8208258754169862      1.9104129377084931      15.283303501667945
   310   1      3.8208258754169862      1.9104129377084931      17.193716439376438
   311   1      3.8208258754169862      1.9104129377084931      19.104129377084931
   312   1      3.8208258754169862      1.9104129377084931      21.014542314793424
   313   1      3.8208258754169862      3.8208258754169862                       0
   314   1      3.8208258754169862      3.8208258754169862      1.9104129377084931
   315   1      3.8208258754169862      3.8208258754169862      3.8208258754169862
   316   1      3.8208258754169862      3.8208258754169862      5.7312388131254792
   317   1      3.8208258754169862      3.8208258754169862      7.6416517508339723
   318   1      3.8208258754169862      3.8208258754169862      9.5520646885424654
   319   1      3.8208258754169862      3.8208258754169862      11.462477626250957
   320   1      3.8208258754169862      3.8208258754169862       13.37289056395945
   321   1      3.8208258754169862      3.8208258754169862      15.283303501667945
   322   1      3.8208258754169862      3.8208258754169862      17.193716439376438
   323   1      3.8208258754169862      3.8208258754169862      19.104129377084931
   324   1      3.8208258754169862      3.8208258754169862      21.014542314793424
   325   1      3.8208258754169862      5.7312388131254792                       0
   326   1      3.8208258754169862      5.7312388131254792      1.9104129377084931
   327   1      3.8208258754169862      5.7312388131254792      3.8208258754169862
   328   1      3.8208258754169862      5.7312388131254792      5.7312388131254792
   329   1      3.8208258754169862      5.7312388131254792      7.6416517508339723
   330   1      3.8208258754169862      5.7312388131254792      9.5520646885424654
   331   1      3.8208258754169862      5.7312388131254792      11.462477626250957
   332   1      3.8208258754169862      5.7312388131254792       13.37289056395945
   333   1      3.8208258754169862      5.7312388131254792      15.283303501667945
   334   1      3.8208258754169862      5.7312388131254792      17.193716439376438
   335   1      3.8208258754169862      5.7312388131254792      19.104129377084931
   336   1      3.8208258754169862      5.7312388131254792      21.014542314793424
   337   1      3.8208258754169862      7.6416517508339723                       0
   338   1      3.8208258754169862      7.6416517508339723      1.9104129377084931
   339   1      3.8208258754169862      7.6416517508339723      3.8208258754169862
   340   1      3.8208258754169862      7.6416517508339723      5.7312388131254792
   341   1      3.8208258754169862      7.6416517508339723      7.6416517508339723
   342   1      3.8208258754169862      7.6416517508339723      9.5520646885424654
   343   1      3.8208258754169862      7.6416517508339723      11.462477626250957
   344   1      3.8208258754169862      7.6416517508339723       13.37289056395945
   345   1      3.8208258754169862      7.6416517508339723      15.283303501667945
   346   1      3.8208258754169862      7.6416517508339723      17.193716439376438
   347   1      3.8208258754169862      7.6416517508339723      19.104129377084931
   348   1      3.8208258754169862      7.6416517508339723      21.014542314793424
   349   1      3.8208258754169862      9.5520646885424654                       0
   350   1      3.8208258754169862      9.5520646885424654      1.9104129377084931
   351   1      3.8208258754169862      9.5520646885424654      3.8208258754169862
   352   1      3.8208258754169862      9.5520646885424654      5.7312388131254792
   353   1      3.8208258754169862      9.5520646885424654      7.6416517508339723
   354   1      3.8208258754169862      9.5520646885424654      9.5520646885424654
   355   1      3.8208258754169862      9.5520646885424654      11.462477626250957
   356   1      3.8208258754169862      9.5520646885424654       13.37289056395945
   357   1      3.8208258754169862      9.5520646885424654      15.283303501667945
   358   1      3.8208258754169862      9.5520646885424654      17.193716439376438
   359   1      3.8208258754169862      9.5520646885424654      19.104129377084931