1.903933137407463860e+01 0.000000000000000000e+00 0.000000000000000000e+00 0.000000000000000000e+00 1.903933137407463860e+01 0.000000000000000000e+00 0.000000000000000000e+00 0.000000000000000000e+00 1.903933137407463860e+01
1.814690562731766477e+01 0.000000000000000000e+00 0.000000000000000000e+00 0.000000000000000000e+00 1.814690562731766477e+01 0.000000000000000000e+00 0.000000000000000000e+00 0.000000000000000000e+00 1.814690562731766477e+01
1.319596984269852413e+01 0.000000000000000000e+00 0.000000000000000000e+00 0.000000000000000000e+00 1.319596984269852413e+01 0.000000000000000000e+00 0.000000000000000000e+00 0.000000000000000000e+00 1.319596984269852413e+01
1.229417429946554741e+01 0.000000000000000000e+00 0.000000000000000000e+00 0.000000000000000000e+00 1.229417429946554741e+01 0.000000000000000000e+00 0.000000000000000000e+00 0.000000000000000000e+00 1.229417429946554741e+01
1.208241352229382670e+01 0.000000000000000000e+00 0.000000000000000000e+00 0.000000000000000000e+00 1.208241352229382670e+01 0.000000000000000000e+00 0.000000000000000000e+00 0.000000000000000000e+00 1.208241352229382670e+01
1.288490117852315464e+01 0.000000000000000000e+00 0.000000000000000000e+00 0.000000000000000000e+00 1.288490117852315464e+01 0.000000000000000000e+00 0.000000000000000000e+00 0.000000000000000000e+00 1.288490117852315464e+01
1.158875106122643039e+01 0.000000000000000000e+00 0.000000000000000000e+00 0.000000000000000000e+00 1.158875106122643039e+01 0.000000000000000000e+00 0.000000000000000000e+00 0.000000000000000000e+00 1.158875106122643039e+01
1.209289985725654759e+01 0.000000000000000000e+00 0.000000000000000000e+00 0.000000000000000000e+00 1.209289985725654759e+01 0.000000000000000000e+00 0.000000000000000000e+00 0.000000000000000000e+00 1.209289985725654759e+01
1.172294745614443912e+01 0.000000000000000000e+00 0.000000000000000000e+00 0.000000000000000000e+00 1.172294745614443912e+01 0.000000000000000000e+00 0.000000000000000000e+00 0.000000000000000000e+00 1.172294745614443912e+01
1.266358894662731061e+01 0.000000000000000000e+00 0.000000000000000000e+00 0.000000000000000000e+00 1.266358894662731061e+01 0.000000000000000000e+00 0.000000000000000000e+00 0.000000000000000000e+00 1.266358894662731061e+01
1.383244015574744878e+01 0.000000000000000000e+00 0.000000000000000000e+00 0.000000000000000000e+00 1.383244015574744878e+01 0.000000000000000000e+00 0.000000000000000000e+00 0.000000000000000000e+00 1.383244015574744878e+01
1.940215184251217195e+01 0.000000000000000000e+00 0.000000000000000000e+00 0.000000000000000000e+00 1.940215184251217195e+01 0.000000000000000000e+00 0.000000000000000000e+00 0.000000000000000000e+00 1.940215184251217195e+01
1.640879498287567984e+01 0.000000000000000000e+00 0.000000000000000000e+00 0.000000000000000000e+00 1.640879498287567984e+01 0.000000000000000000e+00 0.000000000000000000e+00 0.000000000000000000e+00 1.640879498287567984e+01
1.154039667103443989e+01 0.000000000000000000e+00 0.000000000000000000e+00 0.000000000000000000e+00 1.154039667103443989e+01 0.000000000000000000e+00 0.000000000000000000e+00 0.000000000000000000e+00 1.154039667103443989e+01
1.157437758602921640e+01 0.000000000000000000e+00 0.000000000000000000e+00 0.000000000000000000e+00 1.157437758602921640e+01 0.000000000000000000e+00 0.000000000000000000e+00 0.000000000000000000e+00 1.157437758602921640e+01
1.157845485855682988e+01 0.000000000000000000e+00 0.000000000000000000e+00 0.000000000000000000e+00 1.157845485855682988e+01 0.000000000000000000e+00 0.000000000000000000e+00 0.000000000000000000e+00 1.157845485855682988e+01
1.180538110468527080e+01 0.000000000000000000e+00 0.000000000000000000e+00 0.000000000000000000e+00 1.180538110468527080e+01 0.000000000000000000e+00 0.000000000000000000e+00 0.000000000000000000e+00 1.180538110468527080e+01
1.218237939076289678e+01 0.000000000000000000e+00 0.000000000000000000e+00 0.000000000000000000e+00 1.218237939076289678e+01 0.000000000000000000e+00 0.000000000000000000e+00 0.000000000000000000e+00 1.218237939076289678e+01
1.176802700359533205e+01 0.000000000000000000e+00 0.000000000000000000e+00 0.000000000000000000e+00 1.176802700359533205e+01 0.000000000000000000e+00 0.000000000000000000e+00 0.000000000000000000e+00 1.176802700359533205e+01
1.182176405808277231e+01 0.000000000000000000e+00 0.000000000000000000e+00 0.000000000000000000e+00 1.182176405808277231e+01 0.000000000000000000e+00 0.000000000000000000e+00 0.000000000000000000e+00 1.182176405808277231e+01
1.174931423831133692e+01 0.000000000000000000e+00 0.000000000000000000e+00 0.000000000000000000e+00 1.174931423831133692e+01 0.000000000000000000e+00 0.000000000000000000e+00 0.000000000000000000e+00 1.174931423831133692e+01
1.859447275521151610e+01 0.000000000000000000e+00 0.000000000000000000e+00 0.000000000000000000e+00 1.859447275521151610e+01 0.000000000000000000e+00 0.000000000000000000e+00 0.000000000000000000e+00 1.859447275521151610e+01
1.216501187724276534e+01 0.000000000000000000e+00 0.000000000000000000e+00 0.000000000000000000e+00 1.216501187724276534e+01 0.000000000000000000e+00 0.000000000000000000e+00 0.000000000000000000e+00 1.216501187724276534e+01
1.509325065495252360e+01 0.000000000000000000e+00 0.000000000000000000e+00 0.000000000000000000e+00 1.509325065495252360e+01 0.000000000000000000e+00 0.000000000000000000e+00 0.000000000000000000e+00 1.509325065495252360e+01
1.163674604878819174e+01 0.000000000000000000e+00 0.000000000000000000e+00 0.000000000000000000e+00 1.163674604878819174e+01 0.000000000000000000e+00 0.000000000000000000e+00 0.000000000000000000e+00 1.163674604878819174e+01
1.325358864267545300e+01 0.000000000000000000e+00 0.000000000000000000e+00 0.000000000000000000e+00 1.325358864267545300e+01 0.000000000000000000e+00 0.000000000000000000e+00 0.000000000000000000e+00 1.325358864267545300e+01
1.211700843606699962e+01 0.000000000000000000e+00 0.000000000000000000e+00 0.000000000000000000e+00 1.211700843606699962e+01 0.000000000000000000e+00 0.000000000000000000e+00 0.000000000000000000e+00 1.211700843606699962e+01
1.143297763638659248e+01 0.000000000000000000e+00 0.000000000000000000e+00 0.000000000000000000e+00 1.143297763638659248e+01 0.000000000000000000e+00 0.000000000000000000e+00 0.000000000000000000e+00 1.143297763638659248e+01
1.143105784763136157e+01 0.000000000000000000e+00 0.000000000000000000e+00 0.000000000000000000e+00 1.143105784763136157e+01 0.000000000000000000e+00 0.000000000000000000e+00 0.000000000000000000e+00 1.143105784763136157e+01
1.143562527200528933e+01 0.000000000000000000e+00 0.000000000000000000e+00 0.000000000000000000e+00 1.143562527200528933e+01 0.000000000000000000e+00 0.000000000000000000e+00 0.000000000000000000e+00 1.143562527200528933e+01
1.148460087006567854e+01 0.000000000000000000e+00 0.000000000000000000e+00 0.000000000000000000e+00 1.148460087006567854e+01 0.000000000000000000e+00 0.000000000000000000e+00 0.000000000000000000e+00 1.148460087006567854e+01
1.165418664189536990e+01 0.000000000000000000e+00 0.000000000000000000e+00 0.000000000000000000e+00 1.165418664189536990e+01 0.000000000000000000e+00 0.000000000000000000e+00 0.000000000000000000e+00 1.165418664189536990e+01
1.491182207560124340e+01 0.000000000000000000e+00 0.000000000000000000e+00 0.000000000000000000e+00 1.491182207560124340e+01 0.000000000000000000e+00 0.000000000000000000e+00 0.000000000000000000e+00 1.491182207560124340e+01
1.156274039455576030e+01 0.000000000000000000e+00 0.000000000000000000e+00 0.000000000000000000e+00 1.156274039455576030e+01 0.000000000000000000e+00 0.000000000000000000e+00 0.000000000000000000e+00 1.156274039455576030e+01
1.155575030419728044e+01 0.000000000000000000e+00 0.000000000000000000e+00 0.000000000000000000e+00 1.155575030419728044e+01 0.000000000000000000e+00 0.000000000000000000e+00 0.000000000000000000e+00 1.155575030419728044e+01
1.257775724786830018e+01 0.000000000000000000e+00 0.000000000000000000e+00 0.000000000000000000e+00 1.257775724786830018e+01 0.000000000000000000e+00 0.000000000000000000e+00 0.000000000000000000e+00 1.257775724786830018e+01
1.229113437282159893e+01 0.000000000000000000e+00 0.000000000000000000e+00 0.000000000000000000e+00 1.229113437282159893e+01 0.000000000000000000e+00 0.000000000000000000e+00 0.000000000000000000e+00 1.229113437282159893e+01
1.182004926555767277e+01 0.000000000000000000e+00 0.000000000000000000e+00 0.000000000000000000e+00 1.182004926555767277e+01 0.000000000000000000e+00 0.000000000000000000e+00 0.000000000000000000e+00 1.182004926555767277e+01
1.331955944367373590e+01 0.000000000000000000e+00 0.000000000000000000e+00 0.000000000000000000e+00 1.331955944367373590e+01 0.000000000000000000e+00 0.000000000000000000e+00 0.000000000000000000e+00 1.331955944367373590e+01
1.354005300813105173e+01 0.000000000000000000e+00 0.000000000000000000e+00 0.000000000000000000e+00 1.354005300813105173e+01 0.000000000000000000e+00 0.000000000000000000e+00 0.000000000000000000e+00 1.354005300813105173e+01
1.333946506178149427e+01 0.000000000000000000e+00 0.000000000000000000e+00 0.000000000000000000e+00 1.333946506178149427e+01 0.000000000000000000e+00 0.000000000000000000e+00 0.000000000000000000e+00 1.333946506178149427e+01
1.215749638897894869e+01 0.000000000000000000e+00 0.000000000000000000e+00 0.000000000000000000e+00 1.215749638897894869e+01 0.000000000000000000e+00 0.000000000000000000e+00 0.000000000000000000e+00 1.215749638897894869e+01
1.467228788452072230e+01 0.000000000000000000e+00 0.000000000000000000e+00 0.000000000000000000e+00 1.467228788452072230e+01 0.000000000000000000e+00 0.000000000000000000e+00 0.000000000000000000e+00 1.467228788452072230e+01
1.255590604841129654e+01 0.000000000000000000e+00 0.000000000000000000e+00 0.000000000000000000e+00 1.255590604841129654e+01 0.000000000000000000e+00 0.000000000000000000e+00 0.000000000000000000e+00 1.255590604841129654e+01
1.480739439084931242e+01 0.000000000000000000e+00 0.000000000000000000e+00 0.000000000000000000e+00 1.480739439084931242e+01 0.000000000000000000e+00 0.000000000000000000e+00 0.000000000000000000e+00 1.480739439084931242e+01
1.382896737252722374e+01 0.000000000000000000e+00 0.000000000000000000e+00 0.000000000000000000e+00 1.382896737252722374e+01 0.000000000000000000e+00 0.000000000000000000e+00 0.000000000000000000e+00 1.382896737252722374e+01
1.570072648039186625e+01 0.000000000000000000e+00 0.000000000000000000e+00 0.000000000000000000e+00 1.570072648039186625e+01 0.000000000000000000e+00 0.000000000000000000e+00 0.000000000000000000e+00 1.570072648039186625e+01
1.397255647187525263e+01 0.000000000000000000e+00 0.000000000000000000e+00 0.000000000000000000e+00 1.397255647187525263e+01 0.000000000000000000e+00 0.000000000000000000e+00 0.000000000000000000e+00 1.397255647187525263e+01
1.288462860280198008e+01 0.000000000000000000e+00 0.000000000000000000e+00 0.000000000000000000e+00 1.288462860280198008e+01 0.000000000000000000e+00 0.000000000000000000e+00 0.000000000000000000e+00 1.288462860280198008e+01
1.277968817404072333e+01 0.000000000000000000e+00 0.000000000000000000e+00 0.000000000000000000e+00 1.277968817404072333e+01 0.000000000000000000e+00 0.000000000000000000e+00 0.000000000000000000e+00 1.277968817404072333e+01
1.383651971738706443e+01 0.000000000000000000e+00 0.000000000000000000e+00 0.000000000000000000e+00 1.383651971738706443e+01 0.000000000000000000e+00 0.000000000000000000e+00 0.000000000000000000e+00 1.383651971738706443e+01
1.293084278747159921e+01 0.000000000000000000e+00 0.000000000000000000e+00 0.000000000000000000e+00 1.293084278747159921e+01 0.000000000000000000e+00 0.000000000000000000e+00 0.000000000000000000e+00 1.293084278747159921e+01
1.289452244210532328e+01 0.000000000000000000e+00 0.000000000000000000e+00 0.000000000000000000e+00 1.289452244210532328e+01 0.000000000000000000e+00 0.000000000000000000e+00 0.000000000000000000e+00 1.289452244210532328e+01
1.219208788443911828e+01 0.000000000000000000e+00 0.000000000000000000e+00 0.000000000000000000e+00 1.219208788443911828e+01 0.000000000000000000e+00 0.000000000000000000e+00 0.000000000000000000e+00 1.219208788443911828e+01
1.213093739674492788e+01 0.000000000000000000e+00 0.000000000000000000e+00 0.000000000000000000e+00 1.213093739674492788e+01 0.000000000000000000e+00 0.000000000000000000e+00 0.000000000000000000e+00 1.213093739674492788e+01
1.858485489063835416e+01 0.000000000000000000e+00 0.000000000000000000e+00 0.000000000000000000e+00 1.858485489063835416e+01 0.000000000000000000e+00 0.000000000000000000e+00 0.000000000000000000e+00 1.858485489063835416e+01
1.206330941477058261e+01 0.000000000000000000e+00 0.000000000000000000e+00 0.000000000000000000e+00 1.206330941477058261e+01 0.000000000000000000e+00 0.000000000000000000e+00 0.000000000000000000e+00 1.206330941477058261e+01
1.204952825401575112e+01 0.000000000000000000e+00 0.000000000000000000e+00 0.000000000000000000e+00 1.204952825401575112e+01 0.000000000000000000e+00 0.000000000000000000e+00 0.000000000000000000e+00 1.204952825401575112e+01
1.233882705998416718e+01 0.000000000000000000e+00 0.000000000000000000e+00 0.000000000000000000e+00 1.233882705998416718e+01 0.000000000000000000e+00 0.000000000000000000e+00 0.000000000000000000e+00 1.233882705998416718e+01
1.212038421138616329e+01 0.000000000000000000e+00 0.000000000000000000e+00 0.000000000000000000e+00 1.212038421138616329e+01 0.000000000000000000e+00 0.000000000000000000e+00 0.000000000000000000e+00 1.212038421138616329e+01
1.208241117496782557e+01 0.000000000000000000e+00 0.000000000000000000e+00 0.000000000000000000e+00 1.208241117496782557e+01 0.000000000000000000e+00 0.000000000000000000e+00 0.000000000000000000e+00 1.208241117496782557e+01
1.306775658749534941e+01 0.000000000000000000e+00 0.000000000000000000e+00 0.000000000000000000e+00 1.306775658749534941e+01 0.000000000000000000e+00 0.000000000000000000e+00 0.000000000000000000e+00 1.306775658749534941e+01
1.225299472356515551e+01 0.000000000000000000e+00 0.000000000000000000e+00 0.000000000000000000e+00 1.225299472356515551e+01 0.000000000000000000e+00 0.000000000000000000e+00 0.000000000000000000e+00 1.225299472356515551e+01
1.209071374625014705e+01 0.000000000000000000e+00 0.000000000000000000e+00 0.000000000000000000e+00 1.209071374625014705e+01 0.000000000000000000e+00 0.000000000000000000e+00 0.000000000000000000e+00 1.209071374625014705e+01
1.208200269868156163e+01 0.000000000000000000e+00 0.000000000000000000e+00 0.000000000000000000e+00 1.208200269868156163e+01 0.000000000000000000e+00 0.000000000000000000e+00 0.000000000000000000e+00 1.208200269868156163e+01
1.193265249460784361e+01 0.000000000000000000e+00 0.000000000000000000e+00 0.000000000000000000e+00 1.193265249460784361e+01 0.000000000000000000e+00 0.000000000000000000e+00 0.000000000000000000e+00 1.193265249460784361e+01
1.236290436606059728e+01 0.000000000000000000e+00 0.000000000000000000e+00 0.000000000000000000e+00 1.236290436606059728e+01 0.000000000000000000e+00 0.000000000000000000e+00 0.000000000000000000e+00 1.236290436606059728e+01
1.200186692693320190e+01 0.000000000000000000e+00 0.000000000000000000e+00 0.000000000000000000e+00 1.200186692693320190e+01 0.000000000000000000e+00 0.000000000000000000e+00 0.000000000000000000e+00 1.200186692693320190e+01
1.213909657674015463e+01 0.000000000000000000e+00 0.000000000000000000e+00 0.000000000000000000e+00 1.213909657674015463e+01 0.000000000000000000e+00 0.000000000000000000e+00 0.000000000000000000e+00 1.213909657674015463e+01
1.297500012715990003e+01 0.000000000000000000e+00 0.000000000000000000e+00 0.000000000000000000e+00 1.297500012715990003e+01 0.000000000000000000e+00 0.000000000000000000e+00 0.000000000000000000e+00 1.297500012715990003e+01
1.193271102907087844e+01 0.000000000000000000e+00 0.000000000000000000e+00 0.000000000000000000e+00 1.193271102907087844e+01 0.000000000000000000e+00 0.000000000000000000e+00 0.000000000000000000e+00 1.193271102907087844e+01
1.376461093456197560e+01 0.000000000000000000e+00 0.000000000000000000e+00 0.000000000000000000e+00 1.376461093456197560e+01 0.000000000000000000e+00 0.000000000000000000e+00 0.000000000000000000e+00 1.376461093456197560e+01
1.204617010743359806e+01 0.000000000000000000e+00 0.000000000000000000e+00 0.000000000000000000e+00 1.204617010743359806e+01 0.000000000000000000e+00 0.000000000000000000e+00 0.000000000000000000e+00 1.204617010743359806e+01
1.160434369383042430e+01 0.000000000000000000e+00 0.000000000000000000e+00 0.000000000000000000e+00 1.160434369383042430e+01 0.000000000000000000e+00 0.000000000000000000e+00 0.000000000000000000e+00 1.160434369383042430e+01
1.222928176575395653e+01 0.000000000000000000e+00 0.000000000000000000e+00 0.000000000000000000e+00 1.222928176575395653e+01 0.000000000000000000e+00 0.000000000000000000e+00 0.000000000000000000e+00 1.222928176575395653e+01
1.216579492344926905e+01 0.000000000000000000e+00 0.000000000000000000e+00 0.000000000000000000e+00 1.216579492344926905e+01 0.000000000000000000e+00 0.000000000000000000e+00 0.000000000000000000e+00 1.216579492344926905e+01
1.192543918253621804e+01 0.000000000000000000e+00 0.000000000000000000e+00 0.000000000000000000e+00 1.192543918253621804e+01 0.000000000000000000e+00 0.000000000000000000e+00 0.000000000000000000e+00 1.192543918253621804e+01
1.221712500328216500e+01 0.000000000000000000e+00 0.000000000000000000e+00 0.000000000000000000e+00 1.221712500328216500e+01 0.000000000000000000e+00 0.000000000000000000e+00 0.000000000000000000e+00 1.221712500328216500e+01
1.283660975020020345e+01 0.000000000000000000e+00 0.000000000000000000e+00 0.000000000000000000e+00 1.283660975020020345e+01 0.000000000000000000e+00 0.000000000000000000e+00 0.000000000000000000e+00 1.283660975020020345e+01
1.211987606227083880e+01 0.000000000000000000e+00 0.000000000000000000e+00 0.000000000000000000e+00 1.211987606227083880e+01 0.000000000000000000e+00 0.000000000000000000e+00 0.000000000000000000e+00 1.211987606227083880e+01
1.245923528547833925e+01 0.000000000000000000e+00 0.000000000000000000e+00 0.000000000000000000e+00 1.245923528547833925e+01 0.000000000000000000e+00 0.000000000000000000e+00 0.000000000000000000e+00 1.245923528547833925e+01
1.242550658838971955e+01 0.000000000000000000e+00 0.000000000000000000e+00 0.000000000000000000e+00 1.242550658838971955e+01 0.000000000000000000e+00 0.000000000000000000e+00 0.000000000000000000e+00 1.242550658838971955e+01
1.286047517086650060e+01 0.000000000000000000e+00 0.000000000000000000e+00 0.000000000000000000e+00 1.286047517086650060e+01 0.000000000000000000e+00 0.000000000000000000e+00 0.000000000000000000e+00 1.286047517086650060e+01
1.710495364325386092e+01 0.000000000000000000e+00 0.000000000000000000e+00 0.000000000000000000e+00 1.710495364325386092e+01 0.000000000000000000e+00 0.000000000000000000e+00 0.000000000000000000e+00 1.710495364325386092e+01
1.240612186932529681e+01 0.000000000000000000e+00 0.000000000000000000e+00 0.000000000000000000e+00 1.240612186932529681e+01 0.000000000000000000e+00 0.000000000000000000e+00 0.000000000000000000e+00 1.240612186932529681e+01
1.142157106064128058e+01 0.000000000000000000e+00 0.000000000000000000e+00 0.000000000000000000e+00 1.142157106064128058e+01 0.000000000000000000e+00 0.000000000000000000e+00 0.000000000000000000e+00 1.142157106064128058e+01
1.157291184741827728e+01 0.000000000000000000e+00 0.000000000000000000e+00 0.000000000000000000e+00 1.157291184741827728e+01 0.000000000000000000e+00 0.000000000000000000e+00 0.000000000000000000e+00 1.157291184741827728e+01
1.333207861334475908e+01 0.000000000000000000e+00 0.000000000000000000e+00 0.000000000000000000e+00 1.333207861334475908e+01 0.000000000000000000e+00 0.000000000000000000e+00 0.000000000000000000e+00 1.333207861334475908e+01
1.172637762920363613e+01 0.000000000000000000e+00 0.000000000000000000e+00 0.000000000000000000e+00 1.172637762920363613e+01 0.000000000000000000e+00 0.000000000000000000e+00 0.000000000000000000e+00 1.172637762920363613e+01
1.177471275031561504e+01 0.000000000000000000e+00 0.000000000000000000e+00 0.000000000000000000e+00 1.177471275031561504e+01 0.000000000000000000e+00 0.000000000000000000e+00 0.000000000000000000e+00 1.177471275031561504e+01
1.261401130997453635e+01 0.000000000000000000e+00 0.000000000000000000e+00 0.000000000000000000e+00 1.261401130997453635e+01 0.000000000000000000e+00 0.000000000000000000e+00 0.000000000000000000e+00 1.261401130997453635e+01
1.603662287029414557e+01 0.000000000000000000e+00 0.000000000000000000e+00 0.000000000000000000e+00 1.603662287029414557e+01 0.000000000000000000e+00 0.000000000000000000e+00 0.000000000000000000e+00 1.603662287029414557e+01
1.212973680372115659e+01 0.000000000000000000e+00 0.000000000000000000e+00 0.000000000000000000e+00 1.212973680372115659e+01 0.000000000000000000e+00 0.000000000000000000e+00 0.000000000000000000e+00 1.212973680372115659e+01
1.247518890595956265e+01 0.000000000000000000e+00 0.000000000000000000e+00 0.000000000000000000e+00 1.247518890595956265e+01 0.000000000000000000e+00 0.000000000000000000e+00 0.000000000000000000e+00 1.247518890595956265e+01
1.164322896622534564e+01 0.000000000000000000e+00 0.000000000000000000e+00 0.000000000000000000e+00 1.164322896622534564e+01 0.000000000000000000e+00 0.000000000000000000e+00 0.000000000000000000e+00 1.164322896622534564e+01
1.217814791760418558e+01 0.000000000000000000e+00 0.000000000000000000e+00 0.000000000000000000e+00 1.217814791760418558e+01 0.000000000000000000e+00 0.000000000000000000e+00 0.000000000000000000e+00 1.217814791760418558e+01
1.417248741687539138e+01 0.000000000000000000e+00 0.000000000000000000e+00 0.000000000000000000e+00 1.417248741687539138e+01 0.000000000000000000e+00 0.000000000000000000e+00 0.000000000000000000e+00 1.417248741687539138e+01
1.314731018014433772e+01 0.000000000000000000e+00 0.000000000000000000e+00 0.000000000000000000e+00 1.314731018014433772e+01 0.000000000000000000e+00 0.000000000000000000e+00 0.000000000000000000e+00 1.314731018014433772e+01
1.319028171898087898e+01 0.000000000000000000e+00 0.000000000000000000e+00 0.000000000000000000e+00 1.319028171898087898e+01 0.000000000000000000e+00 0.000000000000000000e+00 0.000000000000000000e+00 1.319028171898087898e+01
1.300890870281063449e+01 0.000000000000000000e+00 0.000000000000000000e+00 0.000000000000000000e+00 1.300890870281063449e+01 0.000000000000000000e+00 0.000000000000000000e+00 0.000000000000000000e+00 1.300890870281063449e+01
1.299678983745886640e+01 0.000000000000000000e+00 0.000000000000000000e+00 0.000000000000000000e+00 1.299678983745886640e+01 0.000000000000000000e+00 0.000000000000000000e+00 0.000000000000000000e+00 1.299678983745886640e+01
1.290469147976983955e+01 0.000000000000000000e+00 0.000000000000000000e+00 0.000000000000000000e+00 1.290469147976983955e+01 0.000000000000000000e+00 0.000000000000000000e+00 0.000000000000000000e+00 1.290469147976983955e+01
1.233014154615859859e+01 0.000000000000000000e+00 0.000000000000000000e+00 0.000000000000000000e+00 1.233014154615859859e+01 0.000000000000000000e+00 0.000000000000000000e+00 0.000000000000000000e+00 1.233014154615859859e+01
1.303412484570279339e+01 0.000000000000000000e+00 0.000000000000000000e+00 0.000000000000000000e+00 1.303412484570279339e+01 0.000000000000000000e+00 0.000000000000000000e+00 0.000000000000000000e+00 1.303412484570279339e+01
1.171961578100330392e+01 0.000000000000000000e+00 0.000000000000000000e+00 0.000000000000000000e+00 1.171961578100330392e+01 0.000000000000000000e+00 0.000000000000000000e+00 0.000000000000000000e+00 1.171961578100330392e+01
1.275485094117680518e+01 0.000000000000000000e+00 0.000000000000000000e+00 0.000000000000000000e+00 1.275485094117680518e+01 0.000000000000000000e+00 0.000000000000000000e+00 0.000000000000000000e+00 1.275485094117680518e+01
1.356190347185005862e+01 0.000000000000000000e+00 0.000000000000000000e+00 0.000000000000000000e+00 1.356190347185005862e+01 0.000000000000000000e+00 0.000000000000000000e+00 0.000000000000000000e+00 1.356190347185005862e+01
1.260553037488610073e+01 0.000000000000000000e+00 0.000000000000000000e+00 0.000000000000000000e+00 1.260553037488610073e+01 0.000000000000000000e+00 0.000000000000000000e+00 0.000000000000000000e+00 1.260553037488610073e+01
1.710613432051661675e+01 0.000000000000000000e+00 0.000000000000000000e+00 0.000000000000000000e+00 1.710613432051661675e+01 0.000000000000000000e+00 0.000000000000000000e+00 0.000000000000000000e+00 1.710613432051661675e+01
