1.874841691340139249e+01 1.683161691339198640e+01 2.908559133965178956e-01 1.478996913408290315e+00 8.380959133945905526e-01 6.687586913401496247e+00 1.112176913390563904e+00 1.532616913399325709e+00 9.776406913397750031e+00 1.678781691340240556e+01 1.214926913396767283e+00 1.301111691340647880e+01 1.733941691339289903e+01 2.674156913398951563e+00 2.179286913392950442e+00 1.803181691339537451e+01 1.764416913396782194e+00 5.432476913391234064e+00 1.698651691340216985e+01 6.268356913393863472e+00 9.840536913400482533e+00 1.814321691339973697e+01 3.257356913392190911e+00 1.279771691340290651e+01 1.654021691340357592e+01 1.115041691340615593e+01 1.858651691340843470e+01 1.670651691340583511e+01 1.036381691340105426e+01 7.118736913392087473e+00 1.781409134014701190e-01 7.653616913392943921e+00 9.264096913403008671e+00 1.029176913390833947e+00 9.474416913401976004e+00 1.308761691339636712e+01 1.745391691340078566e+01 1.470451691340156586e+01 8.299819133940673499e-01 5.669489133939913383e-01 1.364831691340826048e+01 4.018246913408860088e+00 5.860859133965253820e-01 1.437431691340039386e+01 7.450986913406032031e+00 2.363176913404386070e+00 1.370551691339587030e+01 1.315151691340203222e+01 3.613806913390641196e+00 2.237396913397931897e+00 1.892571691339833961e+01 5.618596913405694337e+00 1.892936913407209820e+00 5.425846913397949223e+00 2.749356913402101643e+00 1.851941691340466178e+01 9.044276913404301510e+00 6.259386913393989005e+00 1.859321691340744920e+01 1.248971691339932200e+01 3.732316913400381075e+00 4.623246913402303093e+00 1.894601691340359295e+01 3.029466913402002248e+00 5.626096913399477373e+00 2.816436913406957565e+00 3.601316913390943064e+00 4.771566913406977584e+00 1.176031691340086915e+01 6.627316913399219800e+00 6.269396913394676751e+00 1.223021691339741501e+01 6.091926913397415433e+00 1.074761691339434755e+01 1.894771691340675446e+01 2.978786913404112724e+00 8.581306913403841108e+00 3.229516913395318323e+00 5.470226913394207635e+00 7.958286913395939521e+00 1.130261691339116581e+01 6.006626913407969504e+00 1.065381691340813930e+01 1.442321691339945211e+01 5.466696913404445191e+00 1.422151691339075086e+01 1.249516913399467022e+00 5.317346913407936526e+00 1.514661691339907179e+01 6.589916913405855503e+00 4.250796913394271570e+00 1.553491691339625014e+01 8.891136913394028340e+00 4.552016913403172715e+00 1.607861691339558163e+01 1.426991691339784296e+01 1.120341691339268131e+01 2.308866913403108345e+00 1.727481691340609515e+01 1.016681691340444793e+01 1.120836913397701862e+00 5.694006913406995274e+00 1.103201691339998192e+01 1.966306913404718415e+00 7.657986913394347894e+00 1.018371691340338536e+01 1.755516913402637824e+00 1.249491691340338839e+01 1.105521691340054780e+01 4.889846913400610617e+00 1.756091691339585026e+01 8.527786913407391367e+00 5.825746913395408733e+00 6.945406913399161830e+00 7.788746913397739391e+00 2.714646913405898587e+00 7.619796913396155169e+00 8.197146913391959444e+00 6.724546913399641390e+00 1.675371691340173541e+01 1.099401691340102261e+01 9.427986913392945922e+00 1.870701691339611372e+01 7.596736913407047709e+00 8.876406913401366339e+00 6.499986913391004428e+00 7.687936913400741368e+00 7.675546913395629112e+00 1.145331691340026303e+01 1.020791691340692964e+01 8.183286913399795637e+00 1.500161691340504966e+01 8.890796913393396395e+00 1.121401691340902396e+01 2.359116913395719273e+00 7.200006913399801256e+00 1.332571691339545339e+01 5.818316913407357127e+00 7.464066913402346515e+00 1.252551691340315010e+01 8.251996913402081191e+00 7.339786913390840439e+00 1.236951691339540105e+01 1.283901691339456086e+01 1.543181691339947470e+01 1.321006913403560468e+00 1.461596913398345743e+00 1.445331691340724589e+01 1.753656913408139895e+00 3.487926913408640139e+00 1.651901691340896505e+01 9.672969134090837473e-01 7.667966913406178087e+00 1.279031691340371069e+01 1.151836913394848283e+00 1.380031691340409417e+01 1.543341691340804900e+01 5.093566913395148887e+00 2.581256913402098174e+00 1.611331691340184591e+01 5.078086913395492452e+00 4.905216913396701628e+00 1.526661691339478288e+01 4.711656913404250524e+00 9.294366913392078544e+00 1.408351691339854028e+01 3.261096913399142760e+00 1.412001691340255149e+01 1.650761691339785386e+01 7.134846913405233693e+00 1.234296913404774099e+00 1.292651691339817610e+01 8.105116913395603362e+00 4.455706913391021651e+00 1.537801691339914711e+01 1.132771691340310127e+01 8.464156913396628568e+00 1.434071691339169519e+01 9.151296913398283550e+00 1.681721691339097546e+01 1.718631691339950152e+01 1.322501691340202079e+01 1.769461691339238740e+01 1.678711691340222245e+01 1.475531691339296003e+01 2.880516913402876966e+00 1.599691691340162869e+01 1.331621691339571534e+01 7.231246913402993748e+00 1.412871691340752456e+01 1.189141691340489260e+01 1.616441691339603537e+01
2.305144040106726244e+00 1.760030404010615612e+01 1.592270404009877360e+01 1.717840404010701860e+01 2.176800400964236659e-01 6.326864040094354102e+00 6.669340400983030381e-01 1.818474040102908029e+00 8.619994040102012534e+00 1.726440404009361984e+01 7.525940400965969168e-01 1.195930404009959425e+01 1.077704040098036442e+00 2.982374040092369505e+00 1.594980404009552188e+01 1.519660400934599309e-01 2.138794040094007087e+00 5.574544040103456943e+00 1.757520404010360693e+01 5.145444040092530535e+00 8.941154040102652800e+00 1.706330404009317192e+01 2.811884040107802907e+00 1.131450404009606636e+01 1.676750404010321560e+01 1.141010404009839085e+01 2.451114040108298031e+00 1.791900400921355718e-01 8.142424040092683057e+00 2.453344040099928236e+00 6.769340401056075374e-01 8.440324040106492731e+00 7.268654040101357516e+00 8.579740401063191690e-01 9.823704040095201151e+00 1.476460404010520122e+01 4.432740401008298248e-01 1.473530404009123806e+01 1.598320404009124829e+01 1.976960400996248535e-01 1.253160404009099871e+01 2.868734040097701055e+00 2.818594040095881770e+00 1.413670404010439796e+01 1.153080404010326099e+01 2.149074040104492322e+00 1.528230404009337740e+01 1.419860404009462940e+01 6.377964040094115106e+00 1.734044040108216445e+00 1.643620404009368130e+01 4.693124040103005434e+00 1.745250404010453593e+01 7.727254040094816645e+00 6.611084040105721371e+00 1.169604040092032449e+00 8.835554040093024142e+00 2.846684040101283397e+00 2.206084040091023102e+00 1.559450404010111946e+01 4.361284040100296799e+00 2.808784040095920531e+00 2.800704010160254276e-02 4.157164040104430747e+00 3.816974040102791843e+00 4.758704040106520594e+00 4.433974040101620773e+00 2.590964040102567978e+00 8.404204040095425654e+00 4.790314040092281900e+00 2.571504040099278132e+00 1.507600404009348694e+01 6.022234040097421470e+00 7.779394040108984498e+00 1.639470404009149718e+01 3.166974040099819199e+00 7.678594040107216578e+00 3.321404040091201715e+00 6.097314040105153765e+00 1.031610404009411575e+01 8.200114040092122636e+00 4.840294040097468553e+00 9.532604040101601228e+00 1.237160404010115577e+01 2.311074040106684713e+00 1.475950404009911665e+01 1.744510404010602400e+01 3.266134040108881642e+00 1.207070404010511311e+01 1.952854040092075527e+00 3.042594040099809494e+00 1.503660404009700891e+01 7.724134040106037880e+00 3.773154040094991224e+00 1.403530404010618504e+01 1.578210404010894585e+01 1.011690404009451072e+01 1.035304010793929030e-02 1.523954040104160024e+00 7.745204040091323350e+00 2.134354040105789885e+00 6.371094040091256794e+00 7.348434040105445320e+00 1.762620404009186359e+01 7.044974040108841429e+00 7.255744040107660275e+00 1.782800404010026440e+01 1.164510404009764954e+01 9.001744040090963850e+00 4.573174040093690884e+00 1.763760404009692451e+01 7.983984040097227286e+00 2.121454040091467430e+00 3.424054040106206731e+00 1.026780404010801107e+01 5.616614040091377547e+00 1.157320404010011750e+01 8.117224040096777671e+00 2.101694040108101014e+00 1.455860404010353371e+01 1.124960404010546000e+01 7.106674040094207001e+00 9.359440401054017755e-01 1.027390404010212421e+01 1.018360404009260201e+01 2.161034040097767672e+00 8.793814040095888629e+00 7.628564040096277310e+00 1.125540404010135020e+01 8.263144040092596398e+00 7.059894040094262024e+00 1.590210404010586487e+01 1.113650404010396322e+01 1.514900404010870005e+01 1.912084040108551708e+00 1.035610404010518515e+01 1.474910404010022980e+01 3.791394040092200157e+00 1.056440404009927825e+01 1.189340404010281382e+01 1.126550404010201412e+01 1.050200404010596067e+01 1.600760404010398830e+01 1.355140404010531618e+01 1.289030404009550601e+01 1.927294040094673422e+00 1.673820404010740148e+01 1.525960404009476257e+01 1.588360404010051852e+01 5.271974040104001169e+00 1.204600404009415016e+01 1.691620404009950818e+01 1.151870404010839621e+01 1.542310404010621561e+01 1.745180404009658304e+01 1.123140404009833659e+01 1.335970404009757928e+01 4.786534040103783916e+00 2.531734040103781336e+00 1.381610404009197168e+01 6.507874040102501922e+00 5.981664040100615587e+00 1.584060404010721790e+01 4.332624040091013207e+00 1.031040404009158351e+01 1.399290404009118483e+01 3.871204040106999589e+00 1.366140404009493103e+01 1.534530404010128812e+01 9.948904040091564482e+00 7.939040400914396667e-01 1.177990404009158887e+01 1.064490404010636126e+01 4.310414040097962918e+00 1.102620404009797817e+01 6.690254040097695309e+00 9.600704040097449266e+00 1.167460404009833042e+01 9.909304040108368739e+00 1.219130404009847801e+01 1.127030404009172848e+01 1.633770404010248356e+01 1.687050404010405202e+01 1.088080404010028879e+01 1.264330404009473874e+01 4.966454040091774047e+00 1.097460404009512835e+01 1.460790404009581067e+01 1.045580404010741837e+01 1.353900404009407943e+01 1.477560404010053219e+01 1.167920404010132707e+01
4.616383729902327815e+00 1.000819372990527967e+01 6.288913729900079019e+00 4.202943729902345993e+00 4.925753729902931255e+00 7.036277299030290200e-01 1.091239372990258083e+01 1.319429372989350746e+01 6.865223729896507088e+00 1.281039372990150937e+01 3.830273729895946389e+00 3.956733729904687191e+00 1.112589372989742742e+01 5.680053729900327752e+00 1.195059372989445201e+01 1.247549372990486383e+01 7.897733729894991228e+00 1.154859372989754362e+01 6.952183729896063369e+00 5.519653729897648020e+00 9.455853729903274996e+00 1.121799372990366983e+01 5.499003729899228254e+00 9.305493729901538558e+00 9.936193729897562221e+00 6.835553729897185349e+00 5.937873729898868191e+00 1.936743729897597577e+00 3.792063729894192825e+00 5.820013729895668675e+00 5.658093729897841762e+00 1.069059372990453660e+01 1.097359372990518267e+01 1.297543729905612508e+00 6.860173729901078765e+00 9.419383729899266200e+00 1.103629372990629598e+01 9.573293729897917714e+00 1.021709372989501396e+01 1.216629372990206903e+01 1.271869372989398705e+01 2.423403729898105041e+00 4.108323729897547238e+00 2.144363729904612992e+00 2.937747298950619257e-01 1.289449372989369813e+01 3.145783729905011761e+00 8.021673729905176131e+00 1.232689372989751142e+01 8.343853729902832583e+00 1.451023729897389147e+00 1.064039372989981480e+01 1.309929372989981822e+01 1.273639372990017371e+01 7.697307298980641255e-01 9.746003729902541934e+00 8.541473729902177681e+00 1.268489372990289965e+01 3.446563729898392658e+00 1.170169372990042866e+01 6.961763729895176667e+00 1.111769372990380411e+01 7.591683729903587086e+00 1.086569372990318172e+01 5.124663729896509423e+00 2.267033729904006645e+00 1.903393729896826647e+00 3.395833729903610543e+00 1.987413729902468562e+00 2.204073729893826439e+00 6.917747299047374288e-01 9.427053729902825197e+00 4.587373729897602281e+00 3.680153729893445469e+00 7.601833729899230008e+00 2.221463729899352035e+00 6.619993729905616853e+00 4.222043729897466235e+00 1.192689372989422125e+01 9.044653729896142025e+00 5.097373729906087725e+00 1.260429372990283703e+01 6.777143729900523716e+00 3.167173729897770240e+00 1.227929372990428547e+01 2.489863729900413158e+00 9.954093729896513310e+00 8.113273729903120568e+00 1.118729372990598847e+01 5.271313729901838663e+00 3.920253729902359652e+00 4.212953729895138721e+00 3.608463729899583416e+00 4.272623729904273304e+00 1.017959372990583944e+01 1.990872990517935856e-02 9.329193729901771093e+00 3.000657298969206521e-01 4.432203729899673483e+00 4.687693729894104600e+00 1.303619372989998126e+01 2.972023729905386880e+00 4.547213729893824663e+00 4.070347299063455937e-01 6.242363729901851954e+00 7.308783729899321457e+00 1.530783729893534950e+00 2.901723729902139226e+00 2.929113729902139696e+00 1.181239372989349157e+01 4.655163729900613667e+00 2.076283729897578922e+00 4.777023729904241733e+00 1.261189372990497048e+01 4.915797298962911177e-01 6.820529898689923348e-03 6.462823729900875058e+00 5.158913729904305079e+00 7.070203729898752343e+00 2.047333729895960186e+00 1.497783729899894389e+00 8.680013729898751862e+00 4.954833729895887551e+00 3.037163729905309584e+00 1.465593729902018971e+00 3.652313729903129857e+00 7.093303729894300247e+00 5.375473729899280961e+00 1.253169372990363151e+01 3.747153729897329200e+00 7.915733729903520199e+00 1.287969372990134787e+01 8.658273729898862570e+00 1.072149372989498239e+01 9.336473729904927410e+00 9.294463729895507953e+00 9.272543729899492604e+00 6.177613729902333262e+00 7.028213729899166040e+00 8.788063729901923082e+00 6.026773729902131116e+00 1.051239372989928889e+01 1.905833729895636708e+00 1.554243729894532411e+00 2.740493729893861641e+00 1.154319372989498405e+01 8.569163729904518689e+00 1.507873729905627513e+00 9.639863729894925015e+00 1.121229372989877149e+01 2.119813729902146449e+00 6.060883729893878247e+00 1.398623729906287361e+00 1.235349372989838557e+01 6.681807298972398668e-01 9.171163729896475658e+00 8.796923729903333822e+00 8.548993729904566408e+00 6.241017298965690907e-01 6.270473729899554094e+00 1.009339372989725980e+01 3.759623729898765365e+00 1.047139372990478989e+01 8.126923729904088844e+00 8.253983729904316391e+00 5.469853729904846418e+00 1.307579372990554667e+01 8.233827298977057785e-01 5.652463729894368072e+00 5.142393729897651866e+00 5.709753729894604390e+00 1.676313729902438876e+00 9.011633729905863532e+00 2.359063729895628736e+00 8.221783729894925230e+00 8.588663729898362575e+00 8.201893729900678665e+00 5.643283729893977529e+00 3.780883729900186285e+00 1.058769372990637159e+01 1.123849372990092021e+01 1.106329372990589022e+01 1.227029372990002365e+01 1.303539372990253575e+01 4.378863729895076773e+00 2.709387298973512936e-01 5.907273729897567272e+00 7.488913729896759186e+00 8.170323729904122700e+00 8.530063729894060032e+00 3.717223729902137119e+00 1.042589372990156171e+01
3.139928376097325557e+00 1.877983760980425076e-01 9.743738376100864684e+00 8.711638376096280112e+00 1.188293837610422266e+01 5.262198376101013153e+00 6.629638376101542718e+00 3.195848376103088473e+00 5.883808376099654680e+00 3.757498376095013803e+00 3.874658376098056856e+00 8.739838376103540085e+00 1.031333837610640991e+01 9.285338376099266711e+00 1.450668376099533585e+00 5.612518376100249284e+00 7.331438376097612064e+00 6.647838376096461666e+00 4.666368376099809367e+00 9.096638376104182910e+00 2.406488376094768622e+00 6.746538376103428547e+00 8.811638376096738057e+00 1.797948376096592638e+00 9.756038376105468757e+00 1.019183837609540610e+01 1.170253837610635017e+01 1.028598376095974265e+00 9.905938376103815557e+00 8.632837609766597087e-02 3.717138376103632957e+00 5.891998376099212287e+00 1.403618376094462938e+00 2.075578376101509637e+00 2.888718376097421991e+00 2.640158376097960780e+00 4.932628376094801759e+00 8.746838376094967060e+00 8.261938376101237935e+00 5.500028376098126337e+00 2.015328376095395058e+00 7.620638376104831302e+00 1.181963837610061496e+01 2.626598376105718113e+00 8.020938376101369727e+00 7.403838376104825869e+00 1.179153837609569244e+01 1.217123837610270876e+01 4.400183761043313102e-01 1.126343837610078324e+01 1.066673837610138342e+01 4.316478376095865599e+00 5.650998376099343190e+00 5.397528376100733105e+00 1.050383837609436988e+01 9.127738376105430262e+00 4.937848376096276581e+00 6.079088376098479962e+00 8.765438376099231377e+00 1.105793837609431485e+01 1.132933837610366545e+01 1.109843837610617889e+01 3.274938376099403747e+00 1.107893837610547472e+01 6.741238376102542951e+00 1.208963837610184555e+01 7.701238376094625693e+00 8.872238376098735557e+00 8.026938376106313555e+00 9.156283760973895625e-01 7.478938376101357477e+00 7.615283760992688222e-01 2.084628376103948355e+00 8.139238376099081407e+00 3.403368376097739567e+00 1.202673837609528817e+01 4.981628376096255195e+00 5.536783760993662096e-01 6.525583760957845980e-01 1.134153837610593385e+01 8.390438376103668716e+00 5.920888376102921846e+00 2.759783761026490811e-01 9.072338376101983570e+00 4.960478376106178366e+00 1.375588376105928656e+00 1.164353837610485165e+01 9.997038376105336965e+00 2.802738376095038397e+00 1.631883761058108839e-01 8.129738376098423203e+00 6.849938376097260750e+00 5.270918376098200575e+00 2.377868376099826264e+00 5.894278376100845485e+00 9.553838376102333996e+00 1.974008376098796758e+00 5.086568376094102284e+00 5.033898376102800221e+00 9.558638376103830936e+00 6.830838376105902832e+00 3.255428376103384203e+00 1.190673837609474184e+01 7.842238376106332787e+00 6.293228376102726784e+00 3.588618376098276830e+00 8.004638376101663511e+00 6.030898376098739355e+00 8.849238376102318782e+00 3.775518376100480911e+00 4.004088376095167767e+00 4.559508376103821092e+00 1.125563837610296147e+01 1.091293837609980066e+01 6.495838376098228117e+00 5.548183760940357256e-01 3.977848376104194728e+00 2.753678376097101310e+00 1.053433837610618973e+01 8.129938376103096331e+00 4.974538376097808801e+00 3.845688376094936523e+00 1.096413837610347741e+01 6.031788376099862070e+00 2.773378376102477727e+00 1.158078376094253237e+00 9.717838376098162811e+00 7.608238376097888889e+00 7.981838376097625698e+00 1.199623837609576427e+01 6.075168376102789480e+00 3.007558376100373465e+00 2.499698376103787201e+00 1.054563837609972410e+01 2.287378376095344557e+00 7.394138376099495424e+00 4.539238376094963279e+00 1.086283837609723690e+01 5.663078376096349231e+00 6.685738376096757918e+00 1.016693837610377571e+01 2.537028376100601168e+00 3.404398376094756706e+00 1.197893837609728251e+01 1.505228376103027843e+00 1.039043837610049081e+01 5.731798376106104875e+00 1.056763837609736534e+01 4.369983761050797999e-01 7.995638376100393963e+00 4.623258376105649603e+00 6.134238376096087464e+00 7.797238376099980606e+00 9.682338376104764777e+00 4.989498376098171484e+00 1.078553837609848287e+01 2.045688376099024985e+00 4.465783761051480005e-01 3.530683761014146160e-01 7.809538376104585566e+00 1.225143837609545372e+01 7.415838376102422025e+00 1.035033837609797480e+01 9.943138376100050024e+00 7.382638376101287925e+00 7.252338376105979201e+00 5.735998376105878371e+00 1.704368376101059068e+00 1.169853837609895564e+01 4.867008376096003452e+00 5.702478376094807899e+00 1.103083837610046025e+01 8.937238376105177906e+00 1.024673837609946858e+01 4.404348376098147888e+00 3.467998376105373648e+00 4.283998376101717298e+00 8.218838376102395316e+00 7.287438376102328697e+00 1.105933837610243486e+01 3.056798376100057002e+00 9.417783761059301817e-01 3.339338376104123540e+00 8.210838376099900415e+00 1.144223837609815675e+01 2.435188376101415475e+00 9.770183760981734356e-01 8.108538376094884370e+00 8.412938376100697724e+00 9.447838376096932222e+00 4.874748376097341129e+00 6.911438376095697222e+00
7.080375569704524530e+00 6.962115569704289797e+00 3.137325569704707995e+00 3.212535569701211902e+00 1.536225569697189375e+00 1.165001556970361563e+01 5.786245569702423985e+00 3.327645697049810836e-01 5.781705569703526670e+00 8.612295569699835340e+00 6.911495569695187413e+00 8.187775569695741495e+00 1.110975696948577618e-01 3.979345569701242535e+00 1.049291556970003825e+01 1.726645569704594374e+00 1.504405569702948142e+00 6.640795569705683299e+00 6.799245569696394931e+00 1.807175569695920858e+00 2.709675569695278341e+00 4.720345569696391408e+00 8.575175569705709933e+00 6.910135569701052916e+00 5.167055696979357959e-01 7.547095569697891193e+00 6.572115569699849225e+00 7.143565569698145268e+00 1.189271556969874943e+01 9.124535569700137572e+00 3.130475569698360605e+00 6.957335569705717759e+00 8.903395569698011158e+00 1.049921556970058489e+01 1.201861556969872424e+01 6.003865569701253513e+00 9.528315569697028309e+00 8.118655569704596786e+00 3.963235569694323779e+00 8.081885569694392757e+00 1.081251556969895766e+01 1.164125569705805496e+00 4.099745569703618031e+00 8.800185569695054610e+00 3.014845569697089722e+00 5.622975569699097953e+00 2.871435569694102075e+00 1.160211556969486324e+01 5.289665569702098225e+00 4.691825569700710297e+00 8.501965569698448633e+00 1.162521556969686465e+01 6.838365569703926283e+00 1.040981556969456712e+01 9.057355696941233880e-01 1.151641556969491909e+01 4.579445569698568974e+00 6.969855569702890108e+00 2.832205696966387798e-01 1.138761556970389854e+01 6.671085569700482054e+00 9.348235569694775648e+00 3.572425569701549009e+00 5.156005569696502810e+00 3.462955569700005842e+00 5.571805569696275384e+00 1.138601556969800654e+01 4.061085569700498610e+00 4.373775569696172205e+00 1.040135569705766150e+00 2.623945569702926139e+00 2.262155569700122992e+00 4.510365569697302845e+00 1.186151556970467702e+01 1.231825569705916612e+00 7.119845569695976373e+00 2.790975569697143222e+00 9.210375569700898879e+00 2.410895569695401974e+00 1.032301556969510159e+01 2.483195569703391392e+00 1.804615569703408751e+00 6.649635569703803206e+00 3.794525569702377421e+00 6.102135569697798800e+00 5.404495569700423552e+00 6.067245569695122853e+00 1.175371556970339348e+01 1.172121556970000356e+01 8.968905569696550728e+00 1.129721556969721874e+01 8.497705569701185624e+00 1.317505569698840029e+00 3.020865569695999842e+00 1.067691556970101985e+01 1.146261556970521767e+01 1.059401556970534486e+01 6.764355697030274284e-01 2.289665569697673320e+00 3.869925569699129042e+00 1.121611556970515267e+01 6.377745569701307460e+00 2.221756970223257716e-02 6.237265569693855483e+00 1.902965569703873872e+00 4.921615569700708903e+00 7.899025569694891225e+00 1.134601556969569280e+01 7.580355569702268426e+00 7.586355569694156920e+00 6.100905569694931252e+00 9.543615569703531420e+00 1.195721556969915866e+01 1.144881556969366621e+01 1.060655569696151712e+00 5.970995569694840022e+00 8.645585569696621064e+00 7.459055569698088917e+00 7.299785569697410104e+00 9.213555697042219439e-01 2.834125569699730285e+00 4.148335569694824088e+00 9.945515569704976855e+00 7.894515569700484292e+00 2.718905569703442549e+00 6.673065569694784926e+00 9.273135569694598956e+00 1.421775569699357256e+00 4.623325569697652071e+00 9.492315569697360900e+00 5.512275569694685906e+00 2.988265569705833791e+00 5.626545569701822735e+00 5.744265569705807373e+00 1.083391556969620773e+01 2.776545696964097254e-01 8.998955569703758428e+00 1.049081556969985662e+01 1.126951556969942203e+01 9.460115569702626459e+00 5.101215569703609454e+00 8.420245569694131405e+00 5.406475569694726424e+00 1.054101556969442477e+01 1.189651556970368240e+01 1.133121556969556032e+01 9.183055697028069675e-01 7.450485569704135891e+00 9.475415569697046791e+00 1.109221556969441913e+01 3.931035569699589338e+00 1.188781556969429865e+01 3.652535569702505480e+00 9.245165569704719033e+00 4.483585569696248996e+00 5.879855569694193207e+00 3.141955569704994122e+00 5.359365569703532728e+00 6.180965569696458495e+00 1.131341556970552631e+01 1.945755569700906129e+00 9.233775569699474772e+00 4.393625569699042721e+00 6.666425569695705988e+00 5.820105569699949299e+00 1.167251556970038706e+01 4.370925569704556146e+00 7.670155697004027440e-01 7.450855569695077563e+00 4.472575569703580278e+00 3.063085569704375288e+00 3.304815569703337452e+00 5.795695569703243066e+00 2.436895569700531450e+00 4.952505569700738519e+00 3.530995569698650804e+00 2.495135569702354505e+00 6.226675569703640001e+00 8.604755569698951945e+00 8.778105569700736410e+00 6.718185569694205661e+00 1.169421556969421161e+01 2.928535569694445950e+00 8.862145569697890579e+00 1.013931556970277725e+01 7.412925569700536954e+00 2.781895569699348592e+00 9.392215569704799094e+00 4.789355569703290350e+00 9.630915569697284795e+00 2.347705569701780348e+00 2.218995697000375189e-01
1.140145939779546147e+01 1.277205939779348576e+01 9.136119397800332109e+00 2.532589397794728026e+00 1.133445939779875822e+01 2.804529397805128443e+00 1.177715939780261145e+01 1.071095939780145478e+01 6.599979397801758907e+00 6.859983978043635577e-01 1.796009397793542517e+00 7.719359397801648370e+00 9.230129397804050839e+00 2.150639397796011210e+00 1.123079397802754009e+00 1.133725939780250513e+01 3.008859397799280799e+00 3.739079397796925441e+00 1.288909397793704281e+00 4.009519397797496332e+00 6.751509397795201650e+00 9.666409397806031478e+00 3.649489397803447055e+00 1.076075939779538793e+01 9.822259397795315650e+00 4.911289397803132672e+00 2.478319397802680957e+00 2.450599397800375279e+00 5.680499397801091810e+00 3.376269397794278149e+00 1.688039397800041419e+00 7.477559397799275587e+00 6.559349397799801196e+00 1.167465939779659578e+01 6.743639397797140944e+00 1.236095939780430975e+01 9.062293978045486975e-01 8.165319397800752554e+00 1.010605939780235296e+01 1.098935939780402649e+01 7.126799397798719404e+00 4.587969397795487403e+00 1.573439397804064610e+00 1.068225939780492340e+01 5.788259397793989791e+00 1.185705939780139140e+01 9.978959397797471098e+00 9.125769397798217497e+00 5.768539397796867974e+00 1.629049397806095589e+00 1.229655939779543949e+01 4.024419397804090082e+00 1.180423978019074366e-01 1.038469397799649752e+00 3.144309397801760664e+00 1.231785939779587302e+01 7.855109397795787096e+00 1.147429397797834705e+00 3.080053977941870080e-01 9.555909397794833282e+00 4.383539397799820492e+00 4.103329397798185951e+00 1.271525939779662551e+01 1.179949397795519328e+00 3.231009397800437277e+00 3.363479397804175264e+00 5.540289397793531023e+00 6.442649397797794109e+00 7.005729397800111613e+00 1.230075939779461791e+01 3.688409397794970790e+00 1.059625939780396386e+01 8.072293977999965842e-01 6.302419397795084421e+00 9.925793977979249227e-01 4.498299397795642918e+00 6.762069397797921155e+00 2.053029397802200506e+00 4.025699397802857682e+00 8.633789397803150578e+00 4.247389397799625321e+00 9.483993977937485997e-01 5.831619397803787130e+00 1.055165939779858064e+01 4.651529397801944299e+00 6.889949397793996511e+00 1.232485939779879658e+01 3.144439397795998570e+00 9.333529397797926563e+00 1.422729397805001073e+00 5.173299397799739019e+00 1.016325939780526788e+01 7.621539397794349746e+00 5.047759397803019965e+00 9.486399397801351441e+00 9.840559397801856178e+00 8.179959397805985688e+00 4.182823978027811473e-01 1.193835939779560285e+01 7.048889397793995926e+00 1.272299397802446830e+00 1.729849397799251509e+00 6.934729397794375139e+00 4.858613978033562431e-01 3.967609397796771464e+00 7.135409397797678466e+00 1.200425939780141782e+01 8.407109397805548667e+00 7.203659397800425523e+00 4.335889397799790324e+00 1.211895939779890874e+01 5.443629397801220904e+00 4.740459397800889541e+00 4.559629397801831630e+00 5.833589397802695586e+00 1.940869397794211082e+00 6.233969397802192169e+00 7.199659397804276217e+00 2.690749397803530840e+00 1.068475939780412709e+01 7.091259397799110076e+00 6.384589397797316046e+00 1.139855939780308525e+01 5.995039397799473591e+00 9.283259397802027024e+00 3.243659397798728250e+00 6.648559397795257730e+00 3.828079397804661888e+00 7.967349397797256039e+00 8.244129397806219117e+00 4.659709397802123121e+00 1.007865939779973985e+01 6.507359397795896783e+00 9.669719397802039040e+00 1.216295939779520374e+01 5.605749397802990863e+00 1.131205939779455250e+01 1.553569397804671182e+00 4.737209397803213484e+00 1.141485939780510961e+01 4.958939397803163729e+00 7.272699397804829324e+00 8.767189397800356332e+00 8.180459397800671439e+00 9.391289397793860516e+00 1.262035939780262339e+01 8.056593977942601015e-01 1.120985939780596574e+01 1.187955939779422643e+01 4.326669397794170813e+00 9.365469397794557338e+00 1.277765939780097959e+01 6.970709397803224405e+00 9.223129397801125506e+00 1.540819397804865876e+00 9.441589397795365102e+00 7.858849397803460590e+00 3.690099397797369729e+00 3.669789397801621167e+00 1.238065939779339786e+01 2.454603977992346475e-01 5.917589397799139839e+00 1.053005939779360567e+01 4.584439397801300942e+00 5.676559397803274010e+00 1.038725939779578411e+01 3.117979397797312036e+00 8.178279397801160755e+00 7.117309397794164383e+00 6.364849397805045328e+00 2.677389397797064863e+00 8.890879397794829941e+00 6.270149397801184854e+00 4.965069397798067108e+00 1.148605939780099128e+01 7.688409397796814204e+00 7.111459397795770521e+00 1.044905939780393744e+01 6.259789397801494459e+00 9.663999397797882196e+00 8.051769397794906524e+00 9.521999397799293163e+00 1.331019397797457371e+00 1.096995939779371021e+01 9.556679397801339348e+00 2.942199397797418126e+00 6.804209397794396708e+00 1.072325939779444504e+01 6.372019397805391172e+00 1.022515939780204874e+01 9.223399397800061905e+00 9.807559397804634926e+00