-3.910246280800000022e+03
-3.915203406499999801e+03
-3.976419260699999995e+03
-3.991585797700000057e+03
-3.992853377999999793e+03
-3.979409515199999987e+03
-3.991745377700000063e+03
-3.992967249700000139e+03
-3.997592111099999784e+03
-3.980651602699999785e+03
-3.958787751500000013e+03
-3.900107695400000011e+03
-3.949312846599999830e+03
-4.008806750499999907e+03
-4.008638199399999849e+03
-4.007739901100000225e+03
-3.999079072600000018e+03
-3.985110418799999934e+03
-4.010638336099999833e+03
-3.999348154599999816e+03
-4.002550619799999822e+03
-3.908733382700000220e+03
-3.993624739800000043e+03
-3.947246932999999899e+03
-4.004080255899999884e+03
-3.977047172600000067e+03
-3.994765348200000062e+03
-4.013397218200000225e+03
-4.012728437700000086e+03
-4.014021173999999974e+03
-4.015636949400000049e+03
-4.002343843000000106e+03
-3.952556528900000103e+03
-4.005683005700000194e+03
-4.007248678099999779e+03
-3.983091570999999931e+03
-3.987871433499999966e+03
-3.999745374000000083e+03
-3.974186776300000020e+03
-3.970304572699999881e+03
-3.964883040799999890e+03
-3.986975101099999847e+03
-3.951465736999999990e+03
-3.980730534700000135e+03
-3.959495505200000025e+03
-3.965452159399999800e+03
-3.941135624800000187e+03
-3.965053245099999913e+03
-3.979385122199999842e+03
-3.974493818399999782e+03
-3.962584309899999880e+03
-3.972659310699999878e+03
-3.975141917800000101e+03
-3.989533622699999796e+03
-3.996110533900000064e+03
-3.930432680400000208e+03
-3.995290961300000163e+03
-3.996452120099999775e+03
-3.984199606799999856e+03
-3.992075284600000032e+03
-3.989688436800000090e+03
-3.978664764399999967e+03
-3.987089901499999996e+03
-3.991746779699999934e+03
-3.983776379200000065e+03
-4.002802791600000091e+03
-3.989675421500000084e+03
-3.996734152800000174e+03
-3.990495763400000214e+03
-3.969432135600000038e+03
-3.990852111100000002e+03
-3.965782605400000193e+03
-3.985168091000000004e+03
-3.999144247100000030e+03
-3.981707452799999828e+03
-3.988448343200000181e+03
-3.990443773200000123e+03
-3.986359743399999843e+03
-3.970927857300000142e+03
-3.992481471300000067e+03
-3.980599463600000036e+03
-3.983433680499999809e+03
-3.980518210100000033e+03
-3.935797561500000029e+03
-3.984847619199999826e+03
-4.011021786199999951e+03
-4.004016494999999850e+03
-3.978037871600000017e+03
-3.996480478200000107e+03
-4.001400316400000065e+03
-3.980900807399999849e+03
-3.947961325899999792e+03
-3.986984981399999924e+03
-3.991127787899999930e+03
-4.001410875999999917e+03
-3.992928543200000149e+03
-3.961537006600000041e+03
-3.974823925499999859e+03
-3.976972144599999865e+03
-3.977214104300000145e+03
-3.976080816600000162e+03
-3.975994764999999916e+03
-3.982021116599999914e+03
-3.970908494299999802e+03
-3.997466139099999964e+03
-3.986547312300000158e+03
-3.970013335499999812e+03
-3.983982391900000039e+03
-3.936506347500000174e+03
