1.356998252999999932e-01 3.658378979999999947e-01 6.810280500000000237e-02 -7.584300519999999379e-02 6.194817379999999901e-02 3.039155827999999726e-01 -2.557442214000000269e-01 1.416477691999999955e-01 -6.812444330000000381e-02 -1.056571003700000011e+00 -6.266736872000000513e-01 8.705716900000000369e-02 5.997622489999999695e-01 7.773750452000000033e-01 9.807577892000000075e-01 -2.433302432999999987e-01 3.156312895999999757e-01 -3.751585828999999817e-01 1.283672012200000045e+00 9.700117233999999700e-01 4.151284886000000118e-01 5.629319889999999660e-01 9.984323023000000186e-01 -5.234963517999999816e-01 -9.674974739999999684e-01 -1.796800832299999984e+00 3.941645898000000203e-01 3.051558123700000014e+00 -2.091902081599999796e+00 -2.931437592800000047e+00 -9.140570570000000616e-02 1.446650111999999988e-01 1.368786744999999916e-01 1.639426995999999914e-01 2.816834000000000005e-02 -2.686021909999999902e-01 1.084905384000000028e+00 -7.657116569999999900e-01 -4.015095473799999759e+00 -5.293017943000000169e-01 2.926555135000000196e-01 1.733623686000000108e-01 -7.009915049999999870e-02 -5.598217319999999886e-02 -3.953079201999999959e-01 4.821661951999999807e-01 1.525260871999999934e-01 9.710613810000000290e-02 -1.282025933000000006e-01 -1.476886598099999892e+00 9.955114939999999690e-02 2.586544121000000085e-01 1.269965315999999900e-01 4.650266639999999785e-01 2.076372667999999977e-01 -4.245101265999999818e-01 -1.617087198999999920e-01 -2.120488432000000034e-01 -3.030153520000000156e-01 1.105185622000000034e-01 -2.991128800000000115e-02 1.802222027800000070e+00 5.894609967999999700e-01 1.124504741999999974e-01 1.046292897000000027e-01 -5.128360841000000336e-01 3.004316000999999736e-01 3.330653922999999850e-01 -6.188126759999999782e-02 -4.216900221100000401e+00 -9.061889739999999804e+00 4.899645746700000082e+00 2.952240430999999998e-01 3.027073026000000056e-01 2.607737694999999745e-01 6.726132449999999707e-02 -3.934512974000000107e-01 -1.196960392000000067e-01 -4.087965934299999660e+00 2.259562007400000017e+00 -1.064597472700000047e+00 -5.646487640000000252e-02 -2.595302514000000227e-01 -3.250320899999999992e-03 1.350113292000000020e-01 -5.213827104999999573e-01 1.983958469999999932e-02 3.271559200999999972e-01 -3.693544441000000123e-01 -3.074825740000000085e-01 -5.527563073000000271e-01 4.074874113999999992e-01 4.121026147999999889e-01 -4.752317040000000187e-02 -1.462479111999999970e-01 -5.441483737000000209e-01 2.528220945999999913e-01 -3.519923322999999882e-01 -4.380569270999999931e-01 -1.196046322399999973e+00 -5.825627528000000277e-01 -1.778801940799999981e+00 4.581266491000000052e-01 1.067415609400000021e+00 2.055363590499999837e+00 2.353810809999999920e-01 -5.824634449999999825e-02 1.367453589000000025e-01 -3.305168777999999974e-01 8.146253133999999951e-01 -2.280217451000000062e-01 -2.415582686999999951e-01 -1.415028584999999950e-01 1.177228196999999948e-01 4.768828700000000143e-01 8.605473360000000238e-02 -6.459698859000000404e-01 6.308097436999999807e-01 9.016712829999999623e-02 -7.862043659999999601e-02 -4.910232599999999822e-03 -1.056311451999999984e-01 -2.575436521000000201e-01 1.177913968999999977e-01 -1.055282272999999993e-01 1.395416720000000055e-01 7.867426422700000366e+00 6.747276814600000172e+00 -3.558282251500000104e+00 -2.409637998999999975e-01 -1.478879126000000044e-01 4.330183404999999874e-01 -3.038846216000000156e-01 -1.342050377000000017e-01 -2.888658751000000025e-01 -1.658485101000000128e-01 8.218001499999999515e-02 -5.237678027000000069e-01 -2.028610884000000003e-01 -1.603712501000000012e-01 3.306964683999999988e-01 -1.269979240999999925e-01 4.668173099999999888e-03 -1.971374067999999979e-01 2.791398546000000147e-01 -9.299304925000000388e-01 -2.479976701200000022e+00 -7.021967851000000538e-01 9.100898601000000365e-01 2.345591284899999795e+00 2.164084237999999993e-01 3.246797290999999808e-01 1.795380239999999974e-02 -6.590438145000000469e-01 -4.810674989000000012e-01 -5.267994480000000312e-02 -4.190662661999999816e-01 -5.181454176999999994e-01 -1.157486680199999896e+00 4.068545914999999735e-01 -4.210597441000000218e-01 1.276454297099999913e+00 -1.017379720299999901e+00 -1.359742404299999929e+00 -5.080162722000000075e-01 6.796877328000000551e-01 4.822562780999999910e-01 6.035307499999999908e-03 -7.346502139999999681e-02 1.882683270999999936e-01 -6.358455540000000628e-02 2.310599728000000130e-01 -1.924166994000000019e-01 -9.912825960000000436e-02 -3.215889470000000028e+00 1.239969822800000010e+00 3.531709289600000190e+00 -1.126190026999999982e-01 3.984706259999999944e-01 4.221671893999999758e-01 2.457021638999999924e-01 1.495531881400000040e+00 -7.601040349000000029e-01 -8.191226897000000173e-01 -1.687720029999999899e-02 4.345159120199999947e+00 8.077496986000000101e-01 7.368625724999999793e-01 -7.142622481999999495e-01 4.796287038000000003e-01 -2.535798197999999948e-01 5.115787934000000092e-01
-1.134581778000000041e-01 -1.867818286000000050e-01 -2.141693016000000005e-01 -9.750977056999999837e-01 -1.723976635599999918e+00 7.449919941000000545e-01 -3.023095223999999748e-01 2.409702478999999897e-01 -7.415279869999999440e-02 1.162487467999999913e+00 -3.341828662100000180e+00 1.382776172700000084e+00 -8.040917917299999829e+00 3.332000021899999886e+00 1.666305891900000002e+00 1.133470719800000026e+00 1.628077299200000105e+00 -1.621520211999999961e-01 1.389147906300000068e+00 3.409943623999999729e-01 -1.101525184300000015e+00 1.674197925200000103e+00 1.341798618699999945e+00 1.330152917000000101e-01 -6.538683064299999792e+00 -5.037127767400000344e+00 -1.683635606700000009e+00 8.367325239999999498e-02 5.661536216000000454e-01 1.174300521999999958e-01 -6.285916939999999786e-02 -4.043841160000000157e-01 -9.774947729999999835e-02 2.122836439000000130e-01 1.611481167000000103e-01 2.475264329999999832e-02 -1.479619178699999926e+00 6.151320949999999899e-02 -5.901069520999999707e-01 7.318190604299999791e+00 4.587044232200000238e+00 1.549940992100000026e+00 -3.236288159999999720e-02 2.552240264000000258e-01 2.888409981000000237e-01 2.654453696999999890e-01 4.371078320999999822e-01 -1.013837566799999923e+00 1.890137200300000098e+00 -9.041929243999999866e-01 2.112423135999999868e+00 -5.613976379999999905e-02 1.899413279000000121e-01 1.583485589999999998e-01 3.613949550000000038e-02 6.471244660000000093e-02 5.511204392999999868e-01 1.859836634299999902e+00 -5.144757833099999900e+00 1.429740785999999986e-01 -2.235933379999999887e-02 -4.951590420000000214e-02 -2.729927911000000207e-01 4.868562979999999790e-02 -1.479814335999999897e-01 2.509635188000000072e-01 -3.503564149000000238e-01 -2.450421366999999961e-01 -4.656061765999999769e-01 4.636727912599999613e+00 2.141694469299999959e+00 -3.363217997600000064e+00 -1.396240716699999940e+00 4.039166598000000219e-01 1.915717254000000036e-01 -4.720864952000000114e-01 1.238436440000000027e-02 5.956545599999999926e-03 -1.848331660000000071e-02 -5.882627459999999892e-02 3.013294523000000225e-01 1.333868836999999863e-01 -3.450251799999999938e-03 2.635113399999999828e-03 3.343372850000000257e-02 5.814080534000000133e-01 2.621776303399999897e+00 -7.258892560999999910e-01 1.362155495000000049e-01 -6.495316610000000102e-02 1.574749611000000049e-01 2.894228334999999763e-01 3.068746065999999884e-01 1.430790116999999917e+00 -8.041554158000000507e-01 -1.264435217599999994e+00 2.168782429999999845e-02 -1.795410427999999947e-01 -6.476966359999999923e-02 -3.880985880999999749e-01 -1.557163695000000070e-01 -1.159251436000000024e-01 1.046401760999999958e-01 -2.650486993999999763e-01 -4.397370381999999855e-01 1.364648167999999995e-01 3.393955636000000053e-01 -1.556551059000000070e-01 -3.395185409999999793e-02 1.462850930000000049e-01 -2.144651553999999960e-01 5.404336790000000001e-02 -1.793228926999999862e-01 1.217736942000000044e-01 -5.988956420000000197e-02 -1.168907603000000073e+00 1.541819360999999944e+00 1.443986509999999925e-02 1.174715569999999938e-02 -2.522547761000000222e-01 -1.078364158000000017e-01 -7.985991380000000139e-02 1.920482950000000077e-01 2.697746081999999879e-01 -2.852518231000000237e-01 -2.277180599999999947e-03 -1.659961858000000012e-01 8.014762548999999625e-01 -2.064865819999999949e-02 1.583139450400000037e+00 -7.934907189000000027e-01 -1.745131537000000066e-01 2.139504330199999860e+00 1.532976473099999959e+00 -5.758954145599999741e+00 -2.325963988199999832e+00 -5.233929985999999923e-01 5.025743794900000339e+00 -4.133406222000000074e-01 1.284292770800000039e+00 -5.277286103999999645e-01 6.388938610000000073e-02 5.609700060000000210e-02 4.544273439999999692e-02 -2.532431927000000083e-01 -1.978125730000000054e-02 -1.424999505000000000e-01 2.663480655000000086e-01 3.007128694999999796e-01 1.235861456999999969e-01 4.900533149999999893e-02 3.664877193000000144e-01 2.142274330000000157e-02 -1.186922520600000031e+00 -7.992246148999999633e-01 -1.960545227999999918e-01 -3.116540244000000071e-01 4.523844837000000063e-01 -1.280693739999999928e-02 -6.628364000000000478e-02 -7.097794420000000382e-02 -1.949872749999999877e-01 -3.380079050299999999e+00 1.929495010199999916e+00 -5.492118199000000089e-01 8.139459940000000338e-02 -2.343324038000000054e-01 -1.752138002999999999e-01 5.249500220000000161e-02 -2.462854251999999911e-01 1.453340778999999972e-01 1.021250042199999930e+00 -2.157781611099999886e+00 -7.347827926000000121e-01 5.054251962000000375e-01 8.865114361000000498e-01 -1.193971890000000036e+00 1.805146763000000099e-01 -1.238603070199999934e+00 2.174461702000000107e-01 -1.453452540999999876e-01 2.710642561000000117e-01 2.167796520999999976e-01 -8.020615376999999935e-01 1.491431650800000064e+00 6.994680481999999699e-01 -1.039537379999999969e-02 -2.176168622000000108e-01 4.360671937999999748e-01 2.283985356000000078e-01 2.507140360000000012e-02 -4.596754799999999697e-02
-3.898680981000000045e-01 1.876798819000000118e-01 2.509425552999999809e-01 1.919592377100000080e+00 -5.985765464000000202e-01 -2.303566680000000005e-02 -8.805373060000000474e-02 -1.625089660000000047e-01 1.911395000000000108e-02 3.205048098000000123e-01 -1.146325536000000062e-01 -4.560155979999999665e-02 -4.583721486999999817e-01 -1.192567107000000043e-01 6.089418122999999960e-01 3.588506170999999911e-01 -1.093178179000000028e-01 3.655414927000000258e-01 4.043534316999999878e-01 1.118191540300000009e+00 -6.254657918999999566e-01 5.754957940000000188e-02 -7.185719849999999687e-02 -3.367072776000000212e-01 1.602287269999999875e-01 -1.058297006199999890e+00 -3.321786078000000253e-01 7.923513919999999877e-02 -1.459777009999999875e-01 9.908296149999999691e-02 3.015618259000000245e-01 -2.916282879999999855e-02 -5.879245288000000125e-01 -1.628779502999999906e-01 -1.788491355999999866e-01 2.895475385999999873e-01 -1.752431306999999994e-01 6.204026674999999491e-01 -2.431651776000000043e-01 -2.733085839000000128e-01 4.467010440000000054e-02 6.639127400000000012e-03 -1.103700479999999984e-01 2.794447194999999939e-01 -1.996740229999999922e-02 1.815917106499999933e+00 1.536452311599999954e+00 -4.801990191699999855e+00 -5.444701055999999761e-01 1.513424817400000011e+00 -1.997174540600000103e+00 -1.002587697999999916e+00 4.204762521800000208e+00 1.159967669999999895e+00 -5.458915733000000436e-01 -1.371736490000000086e-01 -5.155313552000000410e-01 5.464661621999999941e-01 2.276039207999999980e-01 1.397776683999999991e-01 -1.057917046900000102e+00 2.004019461000000057e-01 -1.356311218000000041e-01 -6.773014616000000432e-01 -3.900131459000000245e-01 -6.305632715000000221e-01 -1.379927310999999879e-01 -3.514624215000000107e-01 -9.811740509999999915e-02 -4.368985169999999862e-01 8.544304523000000318e-01 -1.826569050000000083e-02 -2.702483660000000176e-01 -3.876462438000000121e-01 4.548306563999999774e-01 6.879487414999999606e-01 -2.607081587100000153e+00 -1.051872563899999946e+00 1.013058243999999941e-01 3.005440440000000171e-02 -1.261251640000000084e-02 1.178894787099999952e+00 -9.065055616999999621e-01 2.101524239100000191e+00 -3.232203019099999963e+00 2.716888584299999909e+00 1.678680526600000000e+00 -2.420856119999999917e-02 1.488510823699999985e+00 -8.773518113999999590e-01 1.445829906999999970e-01 4.909567930000000024e-01 1.787494569999999866e-02 1.255205996000000046e-01 1.821020043899999941e+00 6.866061915000000182e-01 4.255597584999999961e-01 -1.198097756999999958e-01 -1.252347950000000099e-01 2.361690445999999888e-01 -1.163362041200000085e+00 2.134615933600000126e+00 1.144849287999999965e-01 1.390109495000000084e-01 3.307744620999999996e-01 -1.758790302999999888e-01 6.479126809999999348e-02 -1.673761223000000131e-01 -3.348966132999999790e-01 -4.797907868999999881e-01 2.006205063000000011e-01 1.731429485000000046e-01 -8.691765314999999603e-01 -2.658149385200000214e+00 5.573665827999999545e-01 -5.136764449999999677e-02 -6.694250700000000352e-03 -5.389119300000000043e-03 3.398835021000000123e-01 2.823802646999999943e-01 -6.738151001000000084e-01 2.441381711300000035e+00 1.285048160599999933e+00 -1.148178128100000084e+00 1.239615750800000082e+00 4.486322927999999988e-01 -1.914447202000000015e-01 2.418403202999999946e-01 7.798323960000000388e-02 -8.706326546000000555e-01 -2.091660821700000117e+00 -1.746676427999999948e-01 1.014801256599999979e+00 8.072013578000000189e-01 1.421762146000000060e+00 3.287757808999999920e+00 1.058014289900000016e+00 -8.728944441999999526e-01 -2.578373446200000085e+00 -1.042122882099999925e+00 -8.490057721999999529e-01 5.232631740000000253e-02 3.684462370000000236e-02 9.532739889999999883e-02 5.970975721000000291e-01 -5.310983026000000162e-01 -4.580915628000000184e-01 3.244702723999999816e-01 -1.133521626999999948e-01 5.181368661999999903e-01 -1.139726480300000011e+00 2.094258176599999910e+00 2.092231775200000143e+00 3.950205508999999893e-01 -7.844051780000000029e+00 -3.509718082600000066e+00 2.167440697000000138e-01 -1.703919155999999990e-01 -1.360706029000000039e-01 -7.317324014999999626e-01 -6.588578370000000572e-02 -7.430233563999999458e-01 2.635821407299999919e+00 -9.099885301000000259e-01 4.096394209999999758e-02 1.029198730000000062e+00 -3.015152033999999870e-01 -2.499786680200000166e+00 -3.004414500000000127e-03 5.456983340000000071e-01 -3.067468163000000025e-01 4.301860613999999861e-01 -2.604190333999999996e-01 -5.965817948999999620e-01 -2.537467031999999900e+00 -1.141060095700000110e+00 1.710312732100000011e+00 -9.750437310999999774e-01 -9.461107203999999937e-01 5.910160637000000383e-01 1.245905942000000044e+00 -3.975710895599999795e+00 -4.510371616000000139e-01 1.414452727999999937e-01 3.186407275200000111e+00 7.092355932000000251e+00 -8.944395142000000076e-01 6.463460570000000016e-02 -6.087306945999999552e-01 7.678239116999999725e-01 -1.492837173999999878e-01 3.157325944000000106e-01
-2.477802937499999913e+00 2.655566945999999984e+00 -1.408718030499999996e+00 1.307663526700000078e+00 -7.971849413999999578e-01 -1.649679645199999989e+00 9.544754090999999496e-01 8.974089051000000428e-01 -1.173193511800000088e+00 -4.272706091999999845e-01 -9.219068867999999917e-01 -6.728468481999999584e-01 5.462834973000000316e-01 -1.395116550000000011e+00 2.406432108999999819e+00 9.891504951199999951e+00 3.891806234100000150e+00 -6.890494001699999593e+00 -3.755556427800000208e+00 2.119151172000000027e-01 1.110127616500000025e+00 4.236628606400000052e+00 -5.911092121000000033e-01 -1.216573792599999981e+00 -2.041901931199999964e+00 2.366654720800000167e+00 -8.225010327999999760e-01 5.543744461999999817e-01 -1.000538845999999982e+00 1.997718115999999933e+00 -2.113218269999999829e-02 -5.437146090000000154e-02 8.098913050000000613e-02 -1.082152813400000024e+00 2.661721595599999990e+00 -8.989386053000000265e-01 -7.696876229000000347e-01 2.240729935300000086e+00 2.525419741699999943e+00 -1.272339387699999991e+00 1.114247005299999982e+00 -2.578632845000000118e-01 4.256693645999999887e-01 1.010488862199999893e+00 3.385113000000000011e-02 -1.861573283000000079e-01 7.242742189999999691e-02 -3.470571525000000213e-01 -9.847167862000000271e-01 1.711916869199999969e+00 4.717067012000000226e-01 9.198725977999999692e-01 -1.518311149000000082e-01 -8.643457809000000269e-01 -1.558093970500000092e+00 7.237346730999999478e-01 -1.825690294800000002e+00 2.624542399999999984e-02 3.014315596299999900e+00 9.049464889999999651e-01 8.397616650000000460e-02 3.951237034000000259e-01 1.624822880000000025e-02 -3.333231014599999931e+00 4.386037920599999751e+00 -2.002435505799999849e+00 -1.630988366400000000e+00 1.019551541300000030e+00 1.336878864999999916e-01 1.182622342099999946e+00 -4.230969309000000012e-01 8.726817533999999821e-01 -9.753053790000000556e-02 -6.964734685000000258e-01 4.267431140999999872e-01 2.448197272899999888e+00 -4.330001744599999647e+00 1.483133666300000097e+00 -2.677042269000000196e+00 1.032609746000000106e+00 -2.195497983000000097e+00 1.137148000999999992e-01 -1.649718017699999928e+00 1.900483675500000080e+00 -4.977784793000000207e-01 -6.943673454000000023e-01 -2.235214648000000137e-01 -2.548150537000000160e-01 -3.330379077000000243e-01 2.826343491000000152e-01 -6.989898284000000128e-01 2.543859847000000118e-01 1.316010976500000096e+00 -2.865187625000000238e-01 4.406691892999999860e-01 2.763642269000000096e-01 -1.161071059299999986e+00 -1.795386747000000116e-01 -6.395638123000000341e-01 6.356200089999999858e-02 4.798912706999999833e-01 -9.316682108999999601e-01 1.136297064599999906e+00 -1.651105676000000022e+00 2.750743692000000018e-01 -3.853133935299999813e+00 1.847011526199999976e+00 -1.244922569100000098e+00 9.245978000000000183e-03 3.831527130000000197e-02 -1.493567368000000006e-01 2.129749105600000192e+00 -3.149372959599999966e+00 2.036431930500000043e+00 -6.142648886999999558e-01 5.295965406000000542e-01 1.698412449999999949e-02 3.000902595199999912e+00 -1.990206584500000098e+00 -3.842842539999999918e-01 -7.344864789999999699e-02 7.226176595000000091e-01 3.090083183999999816e-01 5.640027490000000254e-01 5.456220801000000176e-01 9.953930610000000234e-01 9.890846950999999665e-01 -2.194269396800000216e+00 4.441008559999999883e-01 9.155062139999999848e-01 -2.579722989999999952e-02 2.782718015000000267e-01 -2.641449003999999934e-01 6.817896155999999541e-01 -1.798279029999999903e-02 -1.347835930700000073e+00 -5.210720840000000048e-02 2.913724436999999834e-01 -5.102226032000000133e-01 -2.474891912699999974e+00 -7.386056415999999736e-01 -4.225963777999999782e-01 -2.132976719999999868e-02 1.649414765999999977e-01 -1.995211722000000132e-01 -3.479100641999999799e-01 -6.108048422999999838e-01 -6.686156401999999721e-01 -1.051157131799999922e+00 -1.195401630999999992e-01 -4.926527284499999659e+00 -5.804321132900000180e+00 6.466034569399999654e+00 2.006841462000000131e+00 3.055040552000000131e-01 -5.940889433999999580e-01 3.231572782000000088e-01 -3.704608460000000103e-02 -3.664990873999999788e-01 -6.331210700000000115e-03 -1.690871379999999910e-02 1.336052383800000021e+00 7.836875760000000524e-02 1.603992536200000041e+00 4.600856568999999729e-01 8.657430600000000018e-03 -1.503707375999999984e-01 -2.297789345000000039e-01 4.855709060999999771e-01 1.667503992000000101e-01 -4.065465428999999742e-01 1.569424263399999964e+00 -1.473506614699999995e+00 -1.821489871200000055e+00 -1.768255969999999941e-02 -1.086753781000000085e+00 -7.646582399000000363e-01 7.172332893999999737e-01 4.941726149999999679e-02 -6.558973399999999676e-02 1.324004863599999915e+00 -2.440824431699999852e+00 7.404011713000000494e-01 4.389755085000000001e-01 -3.108113965000000034e-01 1.635979744999999930e-01 4.082483874000000235e-01 3.693746313999999864e-01 8.537313651000000281e-01 -7.409584343999999767e-01 5.578911050000000260e-02 4.640768946000000117e-01
-3.897706170999999942e-01 -7.309874922000000330e-01 2.838578958199999835e+00 -2.497111344000000066e-01 3.863678449999999875e-01 -7.939814450000000356e-02 2.043940719500000114e+00 1.586834261699999971e+00 -6.306766499000000525e-01 6.997619180999999910e-01 -3.464696921000000041e-01 1.061771793699999966e+00 4.159419261999999784e-01 3.908378303999999748e-01 -1.017975741199999895e+00 -1.052037928000000011e-01 -2.559278221999999881e-01 -1.216452660999999963e-01 6.713988562999999576e-01 3.297328408299999847e+00 -3.610939602000000082e-01 -5.928456667000000513e-01 3.238793391200000205e+00 6.033369460999999934e-01 1.059208650000000029e-02 1.134384771999999986e-01 -3.027241544000000006e-01 4.408918289000000046e-01 -7.231220147000000376e-01 -2.495245038000000193e+00 2.828564639000000103e+00 1.037068960000000040e+00 1.273901795999999864e-01 1.367689144399999890e+00 -1.156094653500000069e+00 1.226581184100000055e+00 -9.161469647000000105e-01 -6.021037065000000021e-01 -5.365199988000000086e-01 9.866485076000000021e-01 -1.054682433700000033e+00 -2.061720251999999975e-01 2.857643749599999783e+00 -2.299625581099999927e+00 -1.813096935299999934e+00 -2.367950599999999947e-03 8.799613990000000607e-02 2.373934252999999883e-01 -5.274155784999999819e-01 -2.999756680999999814e-01 -4.236478807999999874e-01 -1.862113853000000097e+00 -2.475317989700000165e+00 7.880816979000000444e-01 1.859150585000000078e-01 2.256457976000000032e-01 -3.601954980000000167e-02 -9.984846424000000109e-01 1.099300098200000075e+00 2.204214848699999951e+00 1.341048239000000031e-01 -1.334106445000000085e-01 6.745778729000000418e-01 -1.412249294200000005e+00 -3.600801533499999874e+00 -1.012324622199999968e+00 6.309885189999999699e-01 -2.512811173999999759e-01 -2.459894170000000158e-02 1.831702715000000092e-01 -2.908705048999999931e-01 1.112569818000000016e-01 6.829124519000000504e-01 1.457005492000000013e-01 -6.117054500999999922e-01 1.172111068000000061e-01 -3.171322650999999770e-01 4.366755343000000011e-01 -2.623204155099999824e+00 1.106660482199999906e+00 -2.118102429699999956e+00 -2.203493743900000190e+00 1.787218307999999922e+00 3.145634519700000187e+00 5.724590172100000096e+00 -1.904662383000000070e-01 9.098615396000000466e-01 2.113247152999999934e-01 -2.241900558000000210e+00 -1.619596721000000072e-01 -4.229512841999999995e-01 1.069805111800000041e+00 -2.165912225000000135e-01 -4.258438881000000120e-01 -6.020213892000000344e-01 -2.791219620000000012e-01 -1.111719004800000077e+00 1.216826787300000046e+00 1.294757890300000103e+00 -1.977124107100000083e+00 -7.685429779000000350e-01 8.209907693000000339e-01 6.888929427000000105e-01 1.806998153899999959e+00 1.961071346200000010e+00 -7.325492588999999999e-01 2.499002985100000185e+00 5.464735998999999955e-01 -5.869267993000000239e-01 9.285847252000000163e-01 -1.398705011399999920e+00 9.227861621999999819e-01 -2.461794710999999913e-01 -7.780234175000000363e-01 -1.392555245300000077e+00 -1.632969195500000081e+00 -8.476869044000000519e-01 4.510104604999999878e-01 6.461245445000000087e-01 -3.192643418099999852e+00 4.285357328000000132e-01 -4.001575920000000064e-02 4.079151610000000122e-02 -1.427891444099999907e+00 -1.563482504400000028e+00 3.457618102000000193e-01 -1.099370397099999952e+00 1.491116108299999965e+00 -1.215019822099999924e+00 2.190917718200000142e+00 1.331750665499999986e+00 -2.061649234000000053e-01 2.632198063000000254e-01 -1.986908850899999912e+00 1.384949135000000109e-01 1.016971597099999958e+00 3.215353017099999988e+00 -7.509873499999999980e-02 6.081333788999999657e-01 5.522905899000000174e-01 5.299647025000000511e-01 4.324830061000000114e-01 -2.331330842000000070e-01 2.179905899000000036e-01 1.397356636600000090e+00 -1.400743630600000067e+00 -1.129665775499999913e+00 -2.196567688999999934e-01 -2.396664216000000125e-01 -3.286822772999999920e-01 4.806366582000000109e-01 6.704530883000000552e-01 1.573135983200000032e+00 7.584202648000000213e-01 1.699189202599999948e+00 -7.215042416000000403e-01 -9.265627169500000093e+00 -9.722892296899999565e+00 2.850265473099999891e+00 -6.540386177000000467e-01 1.348633668099999960e+00 -7.051357079999999444e-02 4.486769742899999969e+00 9.676498687900000562e+00 -5.017023159399999876e+00 -1.309657291800000012e+00 -2.670466660000000214e+00 -7.931166982999999782e-01 -1.831046912699999973e+00 -2.107768107300000082e+00 3.950143609999999805e-01 2.828778850199999972e+00 -1.603365419199999975e+00 -2.474791248499999874e+00 -8.286858227000000188e-01 2.090396093000000122e-01 -2.149448106999999886e-01 1.032168781800000046e+00 7.605230800000000423e-03 1.338826407700000054e+00 -1.059576142600000104e+00 -1.826909830099999965e+00 1.517937208500000024e+00 -7.609991909999999637e-02 -1.009047899999999942e-01 4.964971029999999674e-02 -1.715729508099999912e+00 -1.730255819999999833e-02 2.893200216899999955e+00 -1.603152592000000043e-01 8.609801373000000035e-01 3.252167820000000098e-02
-3.239635290000000140e-02 -1.628937914999999959e-01 -5.064816041999999907e-01 1.029013955000000063e-01 6.081549649999999918e-01 8.726192334000000272e-01 -4.188946021000000131e-01 -8.328325191000000016e-01 5.204281324999999736e-01 -7.501765946999999768e-01 1.421133336000000025e-01 -5.199616755999999507e-01 1.293944116100000041e+00 2.248735835799999805e+00 7.611833099999999741e-03 1.232710441999999990e-01 -5.073853618000000454e-01 -2.812940201999999945e-01 7.311879289999999310e-02 1.246017802699999955e+00 -6.945345846999999573e-01 9.438816937400000384e+00 -5.643476007300000319e+00 5.309260618199999726e+00 2.279571917000000059e-01 4.330814721999999839e-01 -3.078554750999999978e-01 -1.169249581000000038e-01 1.203721200999999935e-01 2.575722825999999799e-01 -3.327340439999999788e-02 -8.104858189999999962e-02 -1.714607095000000025e-01 -7.853128442000000264e-01 1.362942645000000119e-01 -3.865141841999999994e-01 -2.631165420000000088e-01 1.775368455600000006e+00 -6.580653462000000120e-01 2.194363272599999970e+00 9.871821484999999674e-01 -8.923917178000000394e-01 4.402949406000000176e-01 -1.738873753000000077e-01 -2.347039824000000108e-01 9.303294472499999301e+00 4.077831678199999921e+00 -3.585828763599999913e+00 -1.223379730900000073e+00 -4.266444543999999839e-01 1.033814350699999940e+00 -9.343263789000000319e-01 1.385604865299999933e+00 -3.556872620000000040e-01 1.170287425000000048e-01 -1.793757316000000046e-01 -1.816238689000000128e-01 2.828826174999999887e-01 -9.373365849000000471e-01 1.088544281799999958e+00 -2.191763351000000082e-01 1.527901412000000070e-01 1.664607958000000054e-01 -9.120333989999999946e-02 1.479107164000000030e-01 2.347419760999999994e-01 5.126712099999999883e-02 3.639263837999999751e-01 1.700143500000000051e-03 1.818297607999999899e-01 -2.194765472999999911e-01 -3.088038261000000118e-01 7.741208897000000366e-01 -8.136289620000000666e-02 3.547061703000000121e-01 9.435850319999999902e-02 2.103534599000000116e-01 3.842567346999999911e-01 -2.526246051799999837e+00 -7.666367190999999748e-01 1.258115086299999907e+00 2.399648269999999917e-01 -1.533428924000000082e+00 3.770889374999999988e-01 -1.617275059000000126e-01 4.558765772999999744e-01 -3.506659906999999854e-01 5.087005788999999778e-01 -1.070673997999999960e+00 -4.958299713000000053e-01 -4.442555146200000138e+00 -9.799330209999999874e-02 5.838139011999999850e-01 -1.124132710000000021e-02 -7.910469879999999510e-01 2.323962284099999831e+00 -1.512681166299999935e+00 9.305789862000000134e-01 -2.743897453499999806e+00 -1.197782016899999968e+00 -1.045218594999999945e-01 -1.084498418999999991e+00 -1.760880192000000011e-01 -6.691402235000000198e-01 1.861286745799999975e+00 3.567401351000000220e-01 7.962227281999999517e-01 1.366020039599999958e+00 -3.861548237999999911e-01 -1.251957503499999902e+00 6.200485256100000342e+00 -2.151864702000000074e-01 -2.902555329999999961e-02 -6.919090109999999350e-02 5.087549699999999869e-02 -1.558269043999999937e-01 -2.257072524000000024e-01 -7.542940275999999722e-01 -4.300865335500000164e+00 -3.281502534299999940e+00 -5.872144676999999646e-01 5.001089963900000157e+00 -8.375370803999999669e-01 2.060071392699999837e+00 3.130810811999999999e-01 -8.408467227999999460e-01 2.721215690000000076e-01 -1.193598746999999932e-01 2.280455710000000025e-01 -6.900845992799999884e+00 8.071255697799999851e+00 -7.614601468800000106e+00 -4.284666061999999886e-01 -3.240964021000000139e-01 -6.129093008999999537e-01 1.306958836099999965e+00 -1.042302087399999966e+00 4.029704768999999853e-01 -5.592229400999999545e-01 -3.308200570000000007e-02 -2.975571901999999880e-01 8.257312290999999638e-01 -4.640155678999999811e-01 4.610960664000000042e-01 1.588575754899999914e+00 -2.385826156599999859e+00 2.645095703800000031e+00 -1.253950224300000027e+00 -6.408386391000000515e-01 -1.551091341600000062e+00 2.441338365000000066e-01 -9.717496799999999352e-03 -1.420814485000000127e-01 -1.238648443800000054e+00 -2.763782249300000160e+00 4.200564093999999971e-01 -2.323564452000000113e-01 -5.578534746000000100e-01 1.229463585999999997e-01 8.201595215000000438e-01 1.783185051000000021e+00 1.180427682299999947e+00 5.694533923000000275e-01 -8.508671761999999639e-01 8.552476520999999776e-01 1.322400329799999996e+00 1.613294153200000025e+00 -1.713042375299999920e+00 4.232307658000000194e-01 1.667289677999999886e-01 -3.186902259999999792e-02 -3.423464905199999908e+00 -1.471246827000000090e-01 -5.220669499999999567e-03 1.158172464999999984e-01 2.120206008999999947e-01 7.441530110999999836e-01 1.921787014999999932e-01 1.336412059000000041e-01 -6.297219549999999444e-02 6.196457855000000459e-01 6.025343959999999999e-02 5.829348241999999791e-01 -2.871647421999999894e-01 -2.349529001000000006e-01 4.776751000000000087e-03 4.240107455399999559e+00 7.115213383999999808e-01 -4.190670149699999847e+00 -9.292844247199999685e+00 -4.693831558400000326e+00 3.386659198299999840e+00