rho10.7-333.lmp (written by ASE) 

27 	 atoms 
1  atom types
0.0      6.1622284266441421  xlo xhi
0.0      6.1622284266441421  ylo yhi
0.0      6.1622284266441421  zlo zhi


Atoms 

     1   1                       0                       0                       0
     2   1                       0                       0       2.054076142214714
     3   1                       0                       0       4.108152284429428
     4   1                       0       2.054076142214714                       0
     5   1                       0       2.054076142214714       2.054076142214714
     6   1                       0       2.054076142214714       4.108152284429428
     7   1                       0       4.108152284429428                       0
     8   1                       0       4.108152284429428       2.054076142214714
     9   1                       0       4.108152284429428       4.108152284429428
    10   1       2.054076142214714                       0                       0
    11   1       2.054076142214714                       0       2.054076142214714
    12   1       2.054076142214714                       0       4.108152284429428
    13   1       2.054076142214714       2.054076142214714                       0
    14   1       2.054076142214714       2.054076142214714       2.054076142214714
    15   1       2.054076142214714       2.054076142214714       4.108152284429428
    16   1       2.054076142214714       4.108152284429428                       0
    17   1       2.054076142214714       4.108152284429428       2.054076142214714
    18   1       2.054076142214714       4.108152284429428       4.108152284429428
    19   1       4.108152284429428                       0                       0
    20   1       4.108152284429428                       0       2.054076142214714
    21   1       4.108152284429428                       0       4.108152284429428
    22   1       4.108152284429428       2.054076142214714                       0
    23   1       4.108152284429428       2.054076142214714       2.054076142214714
    24   1       4.108152284429428       2.054076142214714       4.108152284429428
    25   1       4.108152284429428       4.108152284429428                       0
    26   1       4.108152284429428       4.108152284429428       2.054076142214714
    27   1       4.108152284429428       4.108152284429428       4.108152284429428
