rho11.0-121212.lmp (written by ASE) 

1728 	 atoms 
1  atom types
0.0      24.422764134766123  xlo xhi
0.0      24.422764134766123  ylo yhi
0.0      24.422764134766123  zlo zhi


Atoms 

     1   1                       0                       0                       0
     2   1                       0                       0      2.0352303445638436
     3   1                       0                       0      4.0704606891276871
     4   1                       0                       0      6.1056910336915307
     5   1                       0                       0      8.1409213782553742
     6   1                       0                       0      10.176151722819217
     7   1                       0                       0       12.21138206738306
     8   1                       0                       0      14.246612411946902
     9   1                       0                       0      16.281842756510748
    10   1                       0                       0      18.317073101074588
    11   1                       0                       0      20.352303445638434
    12   1                       0                       0      22.387533790202276
    13   1                       0      2.0352303445638436                       0
    14   1                       0      2.0352303445638436      2.0352303445638436
    15   1                       0      2.0352303445638436      4.0704606891276871
    16   1                       0      2.0352303445638436      6.1056910336915307
    17   1                       0      2.0352303445638436      8.1409213782553742
    18   1                       0      2.0352303445638436      10.176151722819217
    19   1                       0      2.0352303445638436       12.21138206738306
    20   1                       0      2.0352303445638436      14.246612411946902
    21   1                       0      2.0352303445638436      16.281842756510748
    22   1                       0      2.0352303445638436      18.317073101074588
    23   1                       0      2.0352303445638436      20.352303445638434
    24   1                       0      2.0352303445638436      22.387533790202276
    25   1                       0      4.0704606891276871                       0
    26   1                       0      4.0704606891276871      2.0352303445638436
    27   1                       0      4.0704606891276871      4.0704606891276871
    28   1                       0      4.0704606891276871      6.1056910336915307
    29   1                       0      4.0704606891276871      8.1409213782553742
    30   1                       0      4.0704606891276871      10.176151722819217
    31   1                       0      4.0704606891276871       12.21138206738306
    32   1                       0      4.0704606891276871      14.246612411946902
    33   1                       0      4.0704606891276871      16.281842756510748
    34   1                       0      4.0704606891276871      18.317073101074588
    35   1                       0      4.0704606891276871      20.352303445638434
    36   1                       0      4.0704606891276871      22.387533790202276
    37   1                       0      6.1056910336915307                       0
    38   1                       0      6.1056910336915307      2.0352303445638436
    39   1                       0      6.1056910336915307      4.0704606891276871
    40   1                       0      6.1056910336915307      6.1056910336915307
    41   1                       0      6.1056910336915307      8.1409213782553742
    42   1                       0      6.1056910336915307      10.176151722819217
    43   1                       0      6.1056910336915307       12.21138206738306
    44   1                       0      6.1056910336915307      14.246612411946902
    45   1                       0      6.1056910336915307      16.281842756510748
    46   1                       0      6.1056910336915307      18.317073101074588
    47   1                       0      6.1056910336915307      20.352303445638434
    48   1                       0      6.1056910336915307      22.387533790202276
    49   1                       0      8.1409213782553742                       0
    50   1                       0      8.1409213782553742      2.0352303445638436
    51   1                       0      8.1409213782553742      4.0704606891276871
    52   1                       0      8.1409213782553742      6.1056910336915307
    53   1                       0      8.1409213782553742      8.1409213782553742
    54   1                       0      8.1409213782553742      10.176151722819217
    55   1                       0      8.1409213782553742       12.21138206738306
    56   1                       0      8.1409213782553742      14.246612411946902
    57   1                       0      8.1409213782553742      16.281842756510748
    58   1                       0      8.1409213782553742      18.317073101074588
    59   1                       0      8.1409213782553742      20.352303445638434
    60   1                       0      8.1409213782553742      22.387533790202276
    61   1                       0      10.176151722819217                       0
    62   1                       0      10.176151722819217      2.0352303445638436
    63   1                       0      10.176151722819217      4.0704606891276871
    64   1                       0      10.176151722819217      6.1056910336915307
    65   1                       0      10.176151722819217      8.1409213782553742
    66   1                       0      10.176151722819217      10.176151722819217
    67   1                       0      10.176151722819217       12.21138206738306
    68   1                       0      10.176151722819217      14.246612411946902
    69   1                       0      10.176151722819217      16.281842756510748
    70   1                       0      10.176151722819217      18.317073101074588
    71   1                       0      10.176151722819217      20.352303445638434
    72   1                       0      10.176151722819217      22.387533790202276
    73   1                       0       12.21138206738306                       0
    74   1                       0       12.21138206738306      2.0352303445638436
    75   1                       0       12.21138206738306      4.0704606891276871
    76   1                       0       12.21138206738306      6.1056910336915307
    77   1                       0       12.21138206738306      8.1409213782553742
    78   1                       0       12.21138206738306      10.176151722819217
    79   1                       0       12.21138206738306       12.21138206738306
    80   1                       0       12.21138206738306      14.246612411946902
    81   1                       0       12.21138206738306      16.281842756510748
    82   1                       0       12.21138206738306      18.317073101074588
    83   1                       0       12.21138206738306      20.352303445638434
    84   1                       0       12.21138206738306      22.387533790202276
    85   1                       0      14.246612411946902                       0
    86   1                       0      14.246612411946902      2.0352303445638436
    87   1                       0      14.246612411946902      4.0704606891276871
    88   1                       0      14.246612411946902      6.1056910336915307
    89   1                       0      14.246612411946902      8.1409213782553742
    90   1                       0      14.246612411946902      10.176151722819217
    91   1                       0      14.246612411946902       12.21138206738306
    92   1                       0      14.246612411946902      14.246612411946902
    93   1                       0      14.246612411946902      16.281842756510748
    94   1                       0      14.246612411946902      18.317073101074588
    95   1                       0      14.246612411946902      20.352303445638434
    96   1                       0      14.246612411946902      22.387533790202276
    97   1                       0      16.281842756510748                       0
    98   1                       0      16.281842756510748      2.0352303445638436
    99   1                       0      16.281842756510748      4.0704606891276871
   100   1                       0      16.281842756510748      6.1056910336915307
   101   1                       0      16.281842756510748      8.1409213782553742
   102   1                       0      16.281842756510748      10.176151722819217
   103   1                       0      16.281842756510748       12.21138206738306
   104   1                       0      16.281842756510748      14.246612411946902
   105   1                       0      16.281842756510748      16.281842756510748
   106   1                       0      16.281842756510748      18.317073101074588
   107   1                       0      16.281842756510748      20.352303445638434
   108   1                       0      16.281842756510748      22.387533790202276
   109   1                       0      18.317073101074588                       0
   110   1                       0      18.317073101074588      2.0352303445638436
   111   1                       0      18.317073101074588      4.0704606891276871
   112   1                       0      18.317073101074588      6.1056910336915307
   113   1                       0      18.317073101074588      8.1409213782553742
   114   1                       0      18.317073101074588      10.176151722819217
   115   1                       0      18.317073101074588       12.21138206738306
   116   1                       0      18.317073101074588      14.246612411946902
   117   1                       0      18.317073101074588      16.281842756510748
   118   1                       0      18.317073101074588      18.317073101074588
   119   1                       0      18.317073101074588      20.352303445638434
   120   1                       0      18.317073101074588      22.387533790202276
   121   1                       0      20.352303445638434                       0
   122   1                       0      20.352303445638434      2.0352303445638436
   123   1                       0      20.352303445638434      4.0704606891276871
   124   1                       0      20.352303445638434      6.1056910336915307
   125   1                       0      20.352303445638434      8.1409213782553742
   126   1                       0      20.352303445638434      10.176151722819217
   127   1                       0      20.352303445638434       12.21138206738306
   128   1                       0      20.352303445638434      14.246612411946902
   129   1                       0      20.352303445638434      16.281842756510748
   130   1                       0      20.352303445638434      18.317073101074588
   131   1                       0      20.352303445638434      20.352303445638434
   132   1                       0      20.352303445638434      22.387533790202276
   133   1                       0      22.387533790202276                       0
   134   1                       0      22.387533790202276      2.0352303445638436
   135   1                       0      22.387533790202276      4.0704606891276871
   136   1                       0      22.387533790202276      6.1056910336915307
   137   1                       0      22.387533790202276      8.1409213782553742
   138   1                       0      22.387533790202276      10.176151722819217
   139   1                       0      22.387533790202276       12.21138206738306
   140   1                       0      22.387533790202276      14.246612411946902
   141   1                       0      22.387533790202276      16.281842756510748
   142   1                       0      22.387533790202276      18.317073101074588
   143   1                       0      22.387533790202276      20.352303445638434
   144   1                       0      22.387533790202276      22.387533790202276
   145   1      2.0352303445638436                       0                       0
   146   1      2.0352303445638436                       0      2.0352303445638436
   147   1      2.0352303445638436                       0      4.0704606891276871
   148   1      2.0352303445638436                       0      6.1056910336915307
   149   1      2.0352303445638436                       0      8.1409213782553742
   150   1      2.0352303445638436                       0      10.176151722819217
   151   1      2.0352303445638436                       0       12.21138206738306
   152   1      2.0352303445638436                       0      14.246612411946902
   153   1      2.0352303445638436                       0      16.281842756510748
   154   1      2.0352303445638436                       0      18.317073101074588
   155   1      2.0352303445638436                       0      20.352303445638434
   156   1      2.0352303445638436                       0      22.387533790202276
   157   1      2.0352303445638436      2.0352303445638436                       0
   158   1      2.0352303445638436      2.0352303445638436      2.0352303445638436
   159   1      2.0352303445638436      2.0352303445638436      4.0704606891276871
   160   1      2.0352303445638436      2.0352303445638436      6.1056910336915307
   161   1      2.0352303445638436      2.0352303445638436      8.1409213782553742
   162   1      2.0352303445638436      2.0352303445638436      10.176151722819217
   163   1      2.0352303445638436      2.0352303445638436       12.21138206738306
   164   1      2.0352303445638436      2.0352303445638436      14.246612411946902
   165   1      2.0352303445638436      2.0352303445638436      16.281842756510748
   166   1      2.0352303445638436      2.0352303445638436      18.317073101074588
   167   1      2.0352303445638436      2.0352303445638436      20.352303445638434
   168   1      2.0352303445638436      2.0352303445638436      22.387533790202276
   169   1      2.0352303445638436      4.0704606891276871                       0
   170   1      2.0352303445638436      4.0704606891276871      2.0352303445638436
   171   1      2.0352303445638436      4.0704606891276871      4.0704606891276871
   172   1      2.0352303445638436      4.0704606891276871      6.1056910336915307
   173   1      2.0352303445638436      4.0704606891276871      8.1409213782553742
   174   1      2.0352303445638436      4.0704606891276871      10.176151722819217
   175   1      2.0352303445638436      4.0704606891276871       12.21138206738306
   176   1      2.0352303445638436      4.0704606891276871      14.246612411946902
   177   1      2.0352303445638436      4.0704606891276871      16.281842756510748
   178   1      2.0352303445638436      4.0704606891276871      18.317073101074588
   179   1      2.0352303445638436      4.0704606891276871      20.352303445638434
   180   1      2.0352303445638436      4.0704606891276871      22.387533790202276
   181   1      2.0352303445638436      6.1056910336915307                       0
   182   1      2.0352303445638436      6.1056910336915307      2.0352303445638436
   183   1      2.0352303445638436      6.1056910336915307      4.0704606891276871
   184   1      2.0352303445638436      6.1056910336915307      6.1056910336915307
   185   1      2.0352303445638436      6.1056910336915307      8.1409213782553742
   186   1      2.0352303445638436      6.1056910336915307      10.176151722819217
   187   1      2.0352303445638436      6.1056910336915307       12.21138206738306
   188   1      2.0352303445638436      6.1056910336915307      14.246612411946902
   189   1      2.0352303445638436      6.1056910336915307      16.281842756510748
   190   1      2.0352303445638436      6.1056910336915307      18.317073101074588
   191   1      2.0352303445638436      6.1056910336915307      20.352303445638434
   192   1      2.0352303445638436      6.1056910336915307      22.387533790202276
   193   1      2.0352303445638436      8.1409213782553742                       0
   194   1      2.0352303445638436      8.1409213782553742      2.0352303445638436
   195   1      2.0352303445638436      8.1409213782553742      4.0704606891276871
   196   1      2.0352303445638436      8.1409213782553742      6.1056910336915307
   197   1      2.0352303445638436      8.1409213782553742      8.1409213782553742
   198   1      2.0352303445638436      8.1409213782553742      10.176151722819217
   199   1      2.0352303445638436      8.1409213782553742       12.21138206738306
   200   1      2.0352303445638436      8.1409213782553742      14.246612411946902
   201   1      2.0352303445638436      8.1409213782553742      16.281842756510748
   202   1      2.0352303445638436      8.1409213782553742      18.317073101074588
   203   1      2.0352303445638436      8.1409213782553742      20.352303445638434
   204   1      2.0352303445638436      8.1409213782553742      22.387533790202276
   205   1      2.0352303445638436      10.176151722819217                       0
   206   1      2.0352303445638436      10.176151722819217      2.0352303445638436
   207   1      2.0352303445638436      10.176151722819217      4.0704606891276871
   208   1      2.0352303445638436      10.176151722819217      6.1056910336915307
   209   1      2.0352303445638436      10.176151722819217      8.1409213782553742
   210   1      2.0352303445638436      10.176151722819217      10.176151722819217
   211   1      2.0352303445638436      10.176151722819217       12.21138206738306
   212   1      2.0352303445638436      10.176151722819217      14.246612411946902
   213   1      2.0352303445638436      10.176151722819217      16.281842756510748
   214   1      2.0352303445638436      10.176151722819217      18.317073101074588
   215   1      2.0352303445638436      10.176151722819217      20.352303445638434
   216   1      2.0352303445638436      10.176151722819217      22.387533790202276
   217   1      2.0352303445638436       12.21138206738306                       0
   218   1      2.0352303445638436       12.21138206738306      2.0352303445638436
   219   1      2.0352303445638436       12.21138206738306      4.0704606891276871
   220   1      2.0352303445638436       12.21138206738306      6.1056910336915307
   221   1      2.0352303445638436       12.21138206738306      8.1409213782553742
   222   1      2.0352303445638436       12.21138206738306      10.176151722819217
   223   1      2.0352303445638436       12.21138206738306       12.21138206738306
   224   1      2.0352303445638436       12.21138206738306      14.246612411946902
   225   1      2.0352303445638436       12.21138206738306      16.281842756510748
   226   1      2.0352303445638436       12.21138206738306      18.317073101074588
   227   1      2.0352303445638436       12.21138206738306      20.352303445638434
   228   1      2.0352303445638436       12.21138206738306      22.387533790202276
   229   1      2.0352303445638436      14.246612411946902                       0
   230   1      2.0352303445638436      14.246612411946902      2.0352303445638436
   231   1      2.0352303445638436      14.246612411946902      4.0704606891276871
   232   1      2.0352303445638436      14.246612411946902      6.1056910336915307
   233   1      2.0352303445638436      14.246612411946902      8.1409213782553742
   234   1      2.0352303445638436      14.246612411946902      10.176151722819217
   235   1      2.0352303445638436      14.246612411946902       12.21138206738306
   236   1      2.0352303445638436      14.246612411946902      14.246612411946902
   237   1      2.0352303445638436      14.246612411946902      16.281842756510748
   238   1      2.0352303445638436      14.246612411946902      18.317073101074588
   239   1      2.0352303445638436      14.246612411946902      20.352303445638434
   240   1      2.0352303445638436      14.246612411946902      22.387533790202276
   241   1      2.0352303445638436      16.281842756510748                       0
   242   1      2.0352303445638436      16.281842756510748      2.0352303445638436
   243   1      2.0352303445638436      16.281842756510748      4.0704606891276871
   244   1      2.0352303445638436      16.281842756510748      6.1056910336915307
   245   1      2.0352303445638436      16.281842756510748      8.1409213782553742
   246   1      2.0352303445638436      16.281842756510748      10.176151722819217
   247   1      2.0352303445638436      16.281842756510748       12.21138206738306
   248   1      2.0352303445638436      16.281842756510748      14.246612411946902
   249   1      2.0352303445638436      16.281842756510748      16.281842756510748
   250   1      2.0352303445638436      16.281842756510748      18.317073101074588
   251   1      2.0352303445638436      16.281842756510748      20.352303445638434
   252   1      2.0352303445638436      16.281842756510748      22.387533790202276
   253   1      2.0352303445638436      18.317073101074588                       0
   254   1      2.0352303445638436      18.317073101074588      2.0352303445638436
   255   1      2.0352303445638436      18.317073101074588      4.0704606891276871
   256   1      2.0352303445638436      18.317073101074588      6.1056910336915307
   257   1      2.0352303445638436      18.317073101074588      8.1409213782553742
   258   1      2.0352303445638436      18.317073101074588      10.176151722819217
   259   1      2.0352303445638436      18.317073101074588       12.21138206738306
   260   1      2.0352303445638436      18.317073101074588      14.246612411946902
   261   1      2.0352303445638436      18.317073101074588      16.281842756510748
   262   1      2.0352303445638436      18.317073101074588      18.317073101074588
   263   1      2.0352303445638436      18.317073101074588      20.352303445638434
   264   1      2.0352303445638436      18.317073101074588      22.387533790202276
   265   1      2.0352303445638436      20.352303445638434                       0
   266   1      2.0352303445638436      20.352303445638434      2.0352303445638436
   267   1      2.0352303445638436      20.352303445638434      4.0704606891276871
   268   1      2.0352303445638436      20.352303445638434      6.1056910336915307
   269   1      2.0352303445638436      20.352303445638434      8.1409213782553742
   270   1      2.0352303445638436      20.352303445638434      10.176151722819217
   271   1      2.0352303445638436      20.352303445638434       12.21138206738306
   272   1      2.0352303445638436      20.352303445638434      14.246612411946902
   273   1      2.0352303445638436      20.352303445638434      16.281842756510748
   274   1      2.0352303445638436      20.352303445638434      18.317073101074588
   275   1      2.0352303445638436      20.352303445638434      20.352303445638434
   276   1      2.0352303445638436      20.352303445638434      22.387533790202276
   277   1      2.0352303445638436      22.387533790202276                       0
   278   1      2.0352303445638436      22.387533790202276      2.0352303445638436
   279   1      2.0352303445638436      22.387533790202276      4.0704606891276871
   280   1      2.0352303445638436      22.387533790202276      6.1056910336915307
   281   1      2.0352303445638436      22.387533790202276      8.1409213782553742
   282   1      2.0352303445638436      22.387533790202276      10.176151722819217
   283   1      2.0352303445638436      22.387533790202276       12.21138206738306
   284   1      2.0352303445638436      22.387533790202276      14.246612411946902
   285   1      2.0352303445638436      22.387533790202276      16.281842756510748
   286   1      2.0352303445638436      22.387533790202276      18.317073101074588
   287   1      2.0352303445638436      22.387533790202276      20.352303445638434
   288   1      2.0352303445638436      22.387533790202276      22.387533790202276
   289   1      4.0704606891276871                       0                       0
   290   1      4.0704606891276871                       0      2.0352303445638436
   291   1      4.0704606891276871                       0      4.0704606891276871
   292   1      4.0704606891276871                       0      6.1056910336915307
   293   1      4.0704606891276871                       0      8.1409213782553742
   294   1      4.0704606891276871                       0      10.176151722819217
   295   1      4.0704606891276871                       0       12.21138206738306
   296   1      4.0704606891276871                       0      14.246612411946902
   297   1      4.0704606891276871                       0      16.281842756510748
   298   1      4.0704606891276871                       0      18.317073101074588
   299   1      4.0704606891276871                       0      20.352303445638434
   300   1      4.0704606891276871                       0      22.387533790202276
   301   1      4.0704606891276871      2.0352303445638436                       0
   302   1      4.0704606891276871      2.0352303445638436      2.0352303445638436
   303   1      4.0704606891276871      2.0352303445638436      4.0704606891276871
   304   1      4.0704606891276871      2.0352303445638436      6.1056910336915307
   305   1      4.0704606891276871      2.0352303445638436      8.1409213782553742
   306   1      4.0704606891276871      2.0352303445638436      10.176151722819217
   307   1      4.0704606891276871      2.0352303445638436       12.21138206738306
   308   1      4.0704606891276871      2.0352303445638436      14.246612411946902
   309   1      4.0704606891276871      2.0352303445638436      16.281842756510748
   310   1      4.0704606891276871      2.0352303445638436      18.317073101074588
   311   1      4.0704606891276871      2.0352303445638436      20.352303445638434
   312   1      4.0704606891276871      2.0352303445638436      22.387533790202276
   313   1      4.0704606891276871      4.0704606891276871                       0
   314   1      4.0704606891276871      4.0704606891276871      2.0352303445638436
   315   1      4.0704606891276871      4.0704606891276871      4.0704606891276871
   316   1      4.0704606891276871      4.0704606891276871      6.1056910336915307
   317   1      4.0704606891276871      4.0704606891276871      8.1409213782553742
   318   1      4.0704606891276871      4.0704606891276871      10.176151722819217
   319   1      4.0704606891276871      4.0704606891276871       12.21138206738306
   320   1      4.0704606891276871      4.0704606891276871      14.246612411946902
   321   1      4.0704606891276871      4.0704606891276871      16.281842756510748
   322   1      4.0704606891276871      4.0704606891276871      18.317073101074588
   323   1      4.0704606891276871      4.0704606891276871      20.352303445638434
   324   1      4.0704606891276871      4.0704606891276871      22.387533790202276
   325   1      4.0704606891276871      6.1056910336915307                       0
   326   1      4.0704606891276871      6.1056910336915307      2.0352303445638436
   327   1      4.0704606891276871      6.1056910336915307      4.0704606891276871
   328   1      4.0704606891276871      6.1056910336915307      6.1056910336915307
   329   1      4.0704606891276871      6.1056910336915307      8.1409213782553742
   330   1      4.0704606891276871      6.1056910336915307      10.176151722819217
   331   1      4.0704606891276871      6.1056910336915307       12.21138206738306
   332   1      4.0704606891276871      6.1056910336915307      14.246612411946902
   333   1      4.0704606891276871      6.1056910336915307      16.281842756510748
   334   1      4.0704606891276871      6.1056910336915307      18.317073101074588
   335   1      4.0704606891276871      6.1056910336915307      20.352303445638434
   336   1      4.0704606891276871      6.1056910336915307      22.387533790202276
   337   1      4.0704606891276871      8.1409213782553742                       0
   338   1      4.0704606891276871      8.1409213782553742      2.0352303445638436
   339   1      4.0704606891276871      8.1409213782553742      4.0704606891276871
   340   1      4.0704606891276871      8.1409213782553742      6.1056910336915307
   341   1      4.0704606891276871      8.1409213782553742      8.1409213782553742
   342   1      4.0704606891276871      8.1409213782553742      10.176151722819217
   343   1      4.0704606891276871      8.1409213782553742       12.21138206738306
   344   1      4.0704606891276871      8.1409213782553742      14.246612411946902
   345   1      4.0704606891276871      8.1409213782553742      16.281842756510748
   346   1      4.0704606891276871      8.1409213782553742      18.317073101074588
   347   1      4.0704606891276871      8.1409213782553742      20.352303445638434
   348   1      4.0704606891276871      8.1409213782553742      22.387533790202276
   349   1      4.0704606891276871      10.176151722819217                       0
   350   1      4.0704606891276871      10.176151722819217      2.0352303445638436
   351   1      4.0704606891276871      10.176151722819217      4.0704606891276871
   352   1      4.0704606891276871      10.176151722819217      6.1056910336915307
   353   1      4.0704606891276871      10.176151722819217      8.1409213782553742
   354   1      4.0704606891276871      10.176151722819217      10.176151722819217
   355   1      4.0704606891276871      10.176151722819217       12.21138206738306
   356   1      4.0704606891276871      10.176151722819217      14.246612411946902
   357   1      4.0704606891276871      10.176151722819217      16.281842756510748
   358   1      4.0704606891276871      10.176151722819217      18.317073101074588
   359   1      4.0704606891276871      10.176151722819217      20.352303445638434