5.063440189322939489e+00 3.251313881952750506e+00 6.127997374113407503e+00 6.904717272422182361e+00 1.034503703907605576e+01 5.406929976779609071e+00 5.082655074981241583e+00 2.894810030584677563e+00 1.187224704546462339e+00 8.030241866707003240e+00 1.619547656028688332e+00 1.036856306229764790e+01 9.558675246838147288e+00 1.126988395778757557e+01 4.841010888011403779e+00 2.562023768900671072e+00 6.112059459970621056e+00 1.241212479443588101e+01 2.801653216488707798e+00 1.037423993562578595e+01 5.268087380002700604e-01 6.798380390056872891e+00 2.272678220959778103e-02 6.900067140451453973e+00 3.209251293549752582e+00 1.011179704147365799e+00 1.450064196001667582e+00 5.880015944259497473e+00 1.059828157735635479e+01 7.857802875042682267e+00 5.218201612735396289e+00 8.545263088402736074e+00 5.777261023723037070e+00 8.389010173277567262e+00 8.866592162332027627e+00 1.151915823977630460e+01 3.542874308101289671e+00 4.539694571370280207e-01 7.358113358331106468e+00 1.537587661427807006e+00 4.847470523882429383e+00 7.517146862116621087e+00 1.702057134229777002e+00 9.060741959818383151e+00 3.912456694128646273e+00 1.052010073161059189e+01 2.016345915163192171e+00 1.020149799591707307e+01 1.174935583467597766e+01 1.119991737435990409e+01 1.154709783910463083e-01 6.206712132323880304e+00 1.153416152339423961e+00 2.666831642351210618e+00 2.551601841096747147e+00 7.963085179224138166e+00 8.477964252580598270e+00 1.067433992574532375e+01 1.026943083845720528e+00 9.753879785761349064e-01 6.379606844122473142e+00 5.925112327036661242e+00 4.108159738157866947e+00 3.569514699349596754e+00 1.227680443275388988e+01 1.134954383271174372e+01 6.633424720205602476e+00 6.819905046088602596e+00 1.436331949765565330e+00 2.256009931684189951e+00 9.711183476380723434e+00 6.340880542261503550e+00 1.176873083169720680e+01 3.449736868624477371e+00 1.233361759226157162e+01 8.046174327907642976e+00 1.090292214272967719e+01 2.246659998358503163e+00 1.142089723888288688e+01 6.519718381264420159e+00 4.497475031359420505e+00 4.653331694228878490e+00 8.181962717894919024e+00 9.560359018183188784e-01 8.496105467036196401e+00 4.609135699968682331e+00 3.724852500385192222e+00 1.057575514760479862e+01 1.018469796909369585e+01 8.773191837908742130e+00 8.594823587124913900e+00 9.384395581368265127e+00 7.809257813687441541e+00 1.132816136930269613e+00 9.108184320362591180e+00 1.025216086391525927e+01 9.282942218548502211e+00 3.639322306159182840e+00 1.157922181021652897e+01 1.107890179449759316e+01 1.517886057910764475e+00 3.863064835966920629e+00 2.742506321334519992e+00 7.057247981527629221e+00 3.585197739359613944e+00 1.204476620063612202e+01 2.199038997128409445e+00 7.781804732618685883e+00 1.221434337061308284e+01 1.174435248378680896e+01 6.267179834989833331e+00 1.238550078126656473e+01 9.059855915899566625e+00 6.379495406141757918e+00 9.571208906051152709e+00 8.513806970107566485e+00 1.651285393805672408e+00 3.325808959087052763e+00 6.453049864204620789e+00 6.431547035015870328e+00 7.603084288851328587e+00 6.436665887609041015e+00 9.198953117857714190e+00 7.190968640578986104e+00 3.295700307270203133e+00 8.737164080673741395e+00 1.124310496350136113e+01 7.401281652149532597e+00 7.863872793717956000e+00 9.427295613787590511e+00 1.179318054788662451e+01 1.007121176399699713e+01 1.209944455111091699e+01 7.941971337602638847e+00 7.522303132740891796e-01 4.056288418833071674e+00 1.100739643476207341e+01 4.337810607283649311e+00 5.376114356271077810e+00 7.727742175135986713e+00 9.643066494062315641e+00 8.233092665222886408e-01 3.349536711273276346e+00 1.042594858241420930e+01 7.901163772421414322e+00 8.453670615970242608e+00 3.853907120350450466e+00 3.458787086962765933e+00 4.075362208235427275e+00 3.345940313891941909e+00 2.387107697281094065e+00 1.094489343076139320e+01 8.200371312462829465e+00 5.295615213100589358e+00 5.263261353755487093e+00 8.300167366505228017e+00 8.403457900347351739e+00 7.038334674468091912e+00 6.152050192629475056e+00 6.615677123301749951e+00 4.202191531759603471e+00 1.156740771679417712e+01 1.164146104825064043e+01 1.205154373795446432e+01 3.657201539001549762e+00 8.377859217346324883e+00 2.265685821478107820e-01 1.434778462248325503e+00 9.315570470722173368e+00 4.504331901175759434e+00 8.586982435496384625e+00 1.210064654047629773e+01 5.638740530364270143e+00 1.000686260994489807e+01 1.122186748217594143e+01 9.612236605915036591e+00 1.088496931096659992e+01 8.379280113383867246e+00 2.045785799603649924e+00 3.046034733148323959e+00 1.093676884564421137e+01 5.736209776554383133e+00 7.907797047531354151e-01 1.010479378200394862e+01 7.044331876322213581e+00 1.168143029226881247e+01 9.077285549598084202e+00 8.528047905045832433e-01 7.362597999971769447e+00 1.269111008015041087e+01 1.255095590888223178e+01 9.517685814530519650e+00
3.352148647540163839e+00 1.525676674863847992e+01 4.873878257833376360e+00 6.932865026218641979e-01 7.745554117825503848e-01 8.540273887144255838e+00 1.133415601764331981e+01 1.896958585687033860e+01 1.013212284266683838e+01 6.364138219498455484e+00 3.436082821653855923e+00 1.445519865986341834e+01 6.812239661433149074e+00 1.399736946168649787e+01 1.031169697319312384e+01 1.458778539290044973e+00 4.726926838920992857e+00 3.371628666551108378e+00 9.410608983517850135e+00 3.973597832839641963e+00 8.907656507479741137e+00 4.099446952821163670e+00 5.241264760961311886e+00 3.777728643882360959e+00 3.753576443257419903e+00 7.952450659661664645e+00 1.572947773718636633e+01 2.367665997214673190e+00 4.167829258005185444e+00 1.250522611594132094e+01 9.870723788149800004e-01 1.151327838039351548e+01 1.251357205360089608e+01 5.553710158868809366e+00 1.193903066274163471e+01 1.491675945502922040e+01 2.554106116687195449e+00 1.040007266484154691e+01 1.725494935494204185e+01 1.728805490451929217e+00 1.699755911034617384e+01 6.005469351735339245e+00 9.283349657890691553e-01 1.481174736082781074e+01 1.572675683512936118e+01 8.437789083059303863e+00 1.343196349286273694e+01 1.009993901848666553e+00 3.028890268152187648e+00 4.651129116084599779e+00 1.037839621499307530e+00 3.361259872308195895e+00 1.900962966077650051e+01 8.208584439411385603e+00 3.218423610474770324e+00 5.728235937668605393e-01 4.455300681331210377e+00 5.816766479199316997e+00 9.781225712728041088e+00 4.398497210653722789e+00 2.490166082566344752e+00 7.674115922073812435e+00 1.806961486162039421e+01 9.642090855745834688e+00 1.111538015997699880e+01 9.136759651039630725e+00 1.663220678593273716e+00 6.468680664643766676e+00 5.177394404292568808e+00 9.188164069949236179e+00 3.340808155274614943e+00 1.749307706088576353e+01 7.791987646556052027e+00 1.773085519154690459e+01 1.820005585058140696e+01 2.485599487466754465e-01 4.418056432194440220e+00 7.095936956835806164e+00 4.564734809343944377e+00 1.347011666167435884e+01 8.785523787758210190e+00 1.704382235177220650e+01 1.617942886680917880e+01 7.791272709994276902e+00 9.748527302028850983e+00 1.385429982852814135e+01 7.193049782149414817e+00 5.487737630076969353e+00 7.504702125367600729e+00 3.684480723839600458e+00 2.226059464351924255e+00 9.234669725947716401e+00 1.096974293222442576e+01 1.667669971155150677e+01 1.467026580912147082e+01 1.796516211447212896e+01 1.200669610250075436e+01 1.470707697544227344e+01 8.238833936573422889e+00 1.009374816593704693e+01 1.698841252490638221e-01 1.373116446687250303e+01 1.291039210722736641e+01 1.134714531086767231e+01 1.021088609086954158e+01 1.221207624864069707e+01 1.843901480527267722e+01 1.288034561448336035e+01 4.585828352498003468e+00 5.096914103926272865e+00 1.614710809766607724e+01 5.390274352298863647e+00 6.494278749753267022e+00 1.146259145757432263e+00 3.767180233332770634e+00 1.139005818009303006e+01 1.082954753384487923e+01 1.058922937768465822e+01 1.823451498552692840e+01 3.946023819444195446e-01 1.145267480588571019e+01 6.005705814435760459e+00 1.431365450533051664e+01 1.445920629888468767e+01 8.361267294745070799e+00 1.560757603060053178e+01 7.400882094531900712e+00 6.356620059535185163e+00 1.750057335641538003e+01 7.083548615769464263e+00 1.363618469510150355e+01 1.382918115375310641e+01 1.609188852778461154e+01 7.848674267339280419e+00 1.759119016770756971e+01 1.051299028275670011e+00 1.377226380009354578e+01 1.065871202996502554e+01 6.112456905291998588e+00 1.913014032856481350e+01 2.049491549207095087e+00 1.399843544455025324e+01 1.553649418228509660e+01 1.074649836743045483e+01 1.591655071112476394e+00 1.748513995551866174e+01 1.855174517198754458e+01 1.640008136788891946e+01 4.879999097236668248e+00 1.508305235422298374e+01 1.618028591854548282e+01 1.252174568772748842e+01 1.139256824674361113e+01 1.493908001645687023e+01 1.778042500477123156e+01 9.018181321054635546e+00 5.546408251464167272e+00 1.196366177532720521e+01 4.282163814886329689e+00 1.897099418276331306e+01 7.535672974167475502e+00 7.605636172743786894e+00 1.542816959160054680e+01 6.590482929982569793e+00 8.531998751040028139e+00 9.457042714281945095e+00 8.383117658648947534e-01 1.838517752508339242e+01 1.342208838666000048e+01 1.139218126710368395e+01 1.514332443901772329e+01 1.428393162578711006e+01 3.798654112190124721e+00 9.014610364143099019e+00 7.721117575441901693e+00 8.829300994209976494e+00 1.608971552753600065e+01 7.647329340672659903e+00 1.132523560929859485e+01 1.554166542079084046e+01 3.226740678199999657e+00 1.272801047768264837e+01 1.560119067379232050e+01 1.117506085565704055e+01 1.262444625102975237e+01 7.575234690785040415e-02 1.095827141705848273e+00 1.600603366758068580e+00 5.666404376637873774e+00 3.717611073140716815e+00 6.093464213118211514e-01 2.391996612916295201e-02
4.854876541848014426e+00 1.510085062515033272e+01 1.371043313317405321e+01 9.477648766473103947e+00 4.105010139125607971e+00 1.514388706395814665e+01 1.215760730732932338e+01 2.059393119085688006e+00 8.939916970033443988e+00 1.853388430826011302e+01 1.596944794655697031e+01 3.619866824833888330e-01 8.815991810732265677e+00 3.940502366583543026e+00 5.420582492117589801e+00 1.747425720094889101e+01 1.092464019121398344e+00 1.202804328186225469e+01 1.631866750345719908e+01 1.537591704461711473e+01 1.221667697177217526e+01 5.345689602009064956e+00 4.702307019331949611e+00 7.938451726522378848e+00 1.591749772322406553e+00 5.540214185929438706e+00 1.678432237431701068e+01 8.417625329946233137e+00 7.258408096914083174e+00 1.608728651848729285e+01 1.535582744097776420e+01 1.812701100840753199e+01 1.681831920724368956e+01 1.306819419823354522e+01 4.688003447833111181e+00 9.050576783472955356e+00 1.436016120228958748e+01 5.446521726314791367e-01 9.928664940519825732e-01 5.509204040814243086e+00 9.352578511399689987e+00 1.236358992936281886e+01 6.901949654099108322e+00 1.107845924218108813e+01 9.033902062803335298e+00 1.568947016450097642e+01 1.887621292545675900e+01 8.728242203092827722e+00 5.401183593316166487e+00 5.117928863136763873e+00 3.824369697603847040e+00 6.558732415043246888e+00 1.546341286881412636e+01 1.520570108109987828e+00 4.640219271087643982e+00 1.136164424294422837e+01 1.745842316560153051e+01 1.706856600095729704e+01 7.176071623096930807e+00 1.919773615521482313e+01 3.087891203647820326e+00 3.885801419110161414e-01 6.921420735352659115e+00 6.943781584675811303e+00 6.703970845215359908e+00 1.168247793920774491e+01 1.774420607561241070e+01 1.691752384009723542e+01 4.795126323528552170e+00 8.079100206551645513e+00 1.577250361385082567e+00 4.270590504815320543e+00 6.538845577615929550e+00 7.448407373231735740e+00 2.455802824570357146e+00 1.749818103914988754e+01 1.785386942221396467e+01 1.376965452232290055e+01 1.753757927713613274e+00 3.997883782333161218e+00 1.388039367052601492e+01 1.576759823267319049e+01 1.472573360187594815e+01 2.014203935617999708e+00 2.467056516568341351e+00 1.119671642806299516e+01 3.296985049184327110e+00 7.640742310750695765e+00 6.870321476603697519e+00 4.696120643778616710e+00 1.617044855200868270e+00 1.302699662173686335e+01 1.473571132563704866e+00 4.343730262862180780e+00 1.436837415419202202e+01 1.079525374885724176e+01 1.831954550407024840e+01 1.524362937477398106e+01 1.054734466155378847e+01 4.290714969441436821e+00 2.102365089756262684e+00 1.400801837717682119e+01 6.826818436789315214e+00 8.610677689243974697e+00 1.091215260929521236e+01 8.502301084330696757e-01 1.614150367401644104e+01 1.750382874165147840e+01 4.000047279890148189e-01 1.026813035447447575e+01 6.692764295580089673e+00 1.087355625118916480e+00 1.759393856686188329e+01 1.483742088387139368e+01 2.449713277498671182e+00 9.114699255313034598e+00 1.283652826933780489e+01 1.919537957474901546e+01 7.892426589073489929e+00 7.126108366798137084e+00 5.628093995223532708e+00 8.424863571389778372e+00 5.510550849497640513e+00 6.900882605729171004e+00 1.992104306222292953e+00 1.664044144084251897e+01 2.406047046890036789e+00 1.164578750354907299e+01 1.457871427933051578e+01 5.678379348449400510e+00 1.829012240187597271e+01 1.755403162386976135e+01 1.621053655465765786e+01 1.150648140836653432e+01 1.237861546881942765e+01 1.691347604427667051e+01 9.047311926492342948e+00 1.653800215218914005e+01 1.267648882501890206e+01 1.355778715694520287e+01 7.565623571355118315e+00 3.344674954007408108e+00 1.499518400669804841e+01 6.026952136194418941e+00 3.690822723589322507e+00 6.698899340016401638e+00 6.798599861336572125e+00 1.068806627290642197e+01 1.313473564984775876e+01 5.375532395827853804e+00 8.021589253401584685e+00 3.375697875073898402e+00 9.956771032571234414e+00 4.348906796158525268e+00 1.152478727512054846e+01 1.157501936522335484e+01 1.857996742586610850e+01 1.122490504516856369e+01 3.309968158038036012e+00 2.014233237250098174e+00 6.771218788936709032e+00 8.378725389693041592e+00 3.040126501659775382e+00 1.596291388995426885e+01 1.459041673306986020e+01 7.911823197769327187e+00 1.589929258185834371e+01 1.714395676930643120e+01 9.142397265283960905e+00 1.538646958563246336e+01 2.721043873121644641e+00 1.604022626896994907e+01 1.525796569363930466e+01 1.742402831245500039e+01 1.560436108988510107e+01 1.913319113215993639e+01 3.624522128471325821e+00 8.484484564884272828e+00 1.234364563359876499e+01 7.150119457113817134e+00 1.868693057962043014e+01 1.928113598711785315e+01 4.139263460445857135e+00 2.361996236671976002e-01 7.699878584986644015e+00 2.937386676749233150e+00 1.861918819996071761e+01 1.644940119051418748e+01 7.828303225301000090e+00 9.139551954042593351e+00 1.628183290350097323e+01 1.513149708471943455e+01
7.277163021393303621e-01 1.662254825314037632e+01 4.534906786197783757e-01 3.939228771131840223e-01 1.623591069161198774e+01 5.216360428130354165e+00 1.498251127061637078e+01 4.805146580435999404e-01 7.906640126531397250e+00 1.852905703758169986e+00 1.478842938775383864e+01 1.279697014367374130e+01 5.962261924658271983e-01 5.618928175505222278e+00 1.584131776839715222e+01 1.683075397770712200e+01 4.035076628723708758e+00 4.468201615821846495e+00 1.565100102574384877e+01 3.973538825152789666e+00 8.422715811068382408e+00 8.776461189490264436e-01 5.152682578298102278e+00 1.112663176880009175e+01 1.822346828269923558e+00 8.887302103220795502e+00 1.671868593477639564e+01 1.531043369315975844e-01 7.818318089257265235e+00 5.097017478262679369e+00 1.675716252917739268e+01 9.960452582170145064e+00 8.103457333188869072e+00 6.851271420944851087e-01 7.352805734969525275e+00 1.172266704176211327e+01 1.665421891407953581e+01 1.189221750932529353e+01 1.583713419896121266e+01 3.619485376155611722e-01 1.351137926900390163e+01 3.988133195952829002e+00 1.648782468289848069e+01 1.203945734699772530e+01 6.749269217141677935e+00 7.013544477408137356e-02 1.224328172865627984e+01 1.374553267661280920e+01 3.985341020498646802e+00 1.689550380064499757e+00 8.545715485276392590e-04 3.416014270513477502e+00 1.682782053784762866e+01 4.882042051555802509e+00 4.275769233463254437e+00 2.618023788354353898e-01 7.491786040953361869e+00 4.829794367278386069e+00 1.305366130196586427e+00 1.132168642813423354e+01 4.549843536426290136e+00 3.813819265733108921e+00 1.658931658602327630e+01 4.925438342309688800e+00 5.234429829672066603e+00 3.738523190634802873e+00 3.763929509263814310e+00 4.628449139863898942e+00 7.334879129114101559e+00 5.228654415343841677e+00 4.703002448670742019e+00 1.270528063773270411e+01 4.240102047369189719e+00 9.390945074040670804e+00 1.665855565224116575e+01 4.652478138807379260e+00 8.086005728405082138e+00 5.310863168988999128e+00 4.172487219637502243e+00 9.095998371557326934e+00 8.217731555766683016e+00 2.498043655862169032e+00 1.031242523572200831e+01 1.170083402563253117e+01 4.616203516109046667e+00 1.134388853209669179e+01 8.954002323332483915e-01 3.300531163548515945e+00 1.247735031575696318e+01 2.718131490655631755e+00 3.188930578813831573e+00 1.207796686293750099e+01 9.626995892061479765e+00 2.100373781210135959e+00 1.260683448135883111e+01 1.396373554612851287e+01 9.552255845789019872e+00 1.607036670583993043e+01 1.231230485944503794e+00 7.578483894400421583e+00 1.623204039665416332e+01 3.189738137615866886e+00 8.616562717231955659e+00 1.548303301805836973e+01 7.730587388820925554e+00 8.703090246010768638e+00 1.656015129765328453e+01 1.275066585974005129e+01 7.521332179244966554e+00 4.856469736806784177e+00 1.608705014119458099e+01 8.138390256739187478e+00 3.715050156880130849e+00 3.655061095747204281e+00 8.852531615114580532e+00 5.054314564198585380e+00 8.365722152950235468e+00 8.401993580338201539e+00 4.788600259789156155e+00 1.384175039897201742e+01 8.191041586372213246e+00 7.712132602671175619e+00 1.651957440655825593e+01 9.361223818831149401e+00 8.922256381107485979e+00 5.586251190628631846e+00 8.514552196633815129e+00 7.288809347330326815e+00 7.276812791010509152e+00 7.856925610127292181e+00 6.786371540707993866e+00 1.329850430414753326e+01 1.028007794696406307e+01 1.154471967611787520e+01 1.414377450739034703e-01 7.655313631777763916e+00 1.294709787025820624e+01 5.590151175515820192e+00 8.387698514288270957e+00 1.373642002065509971e+01 9.587388652552906620e+00 8.959629985275723740e+00 1.291523941990522140e+01 1.254636360345563517e+01 1.427589686187190843e+01 7.165438361867236539e-02 1.653955394398249013e+01 1.271713447397943142e+01 8.122318141583092510e-01 2.945812012578721717e+00 1.303333290050231064e+01 1.569634060480122173e+01 9.449714498249305095e+00 1.134429031486457262e+01 1.617522774344649861e+01 1.149636293659616726e+01 1.178608902395727753e+01 4.724480287067311934e+00 1.627204722589518582e+01 1.301293097481231342e+01 4.375470737195938042e+00 4.605747954139859601e+00 1.095143104413611290e+01 4.718367173765953382e+00 8.612944699606529753e+00 1.176789859751936618e+01 3.440977564351999973e+00 1.415655812476607345e+01 1.294240086666824396e+01 8.492444247392333168e+00 1.637309266454481715e+01 1.322676511450656811e+01 6.921937552635439417e+00 5.112582658428912907e+00 1.319073173724396320e+01 7.911439845203100951e+00 9.335108236705922380e+00 1.197594064607348230e+01 8.415940928859841463e+00 1.161666311937825213e+01 1.282527387522694440e+01 1.192759435092597009e+01 1.675061388457422140e+01 1.202005765389564473e+01 1.209987366001456977e+01 5.767739964959898380e+00 1.370822352849409320e+01 1.380792168971575684e+01 7.755020102753555911e+00 1.132520713438554161e+01 1.402614720887970634e+01 1.400503438874593343e+01
9.817346684242029831e-01 1.166912433915820202e+01 3.312974100763697027e+00 1.746160592483078489e+01 1.687472597368870453e+01 7.585842871864655557e+00 2.073948499854456529e+01 4.071563258799355545e+00 1.454959235561408981e+01 1.841651224098927031e+01 1.583379360104580691e+01 1.142657639074663578e+01 1.057689205637747376e+00 8.979615781727624535e-01 1.394905580028082603e+01 1.295032212551284445e+01 5.210589382686827697e+00 2.102852068034304267e+01 1.485593385178906445e+01 1.585035605605409792e+01 4.795808292664216488e+00 1.554453933956030376e+01 1.200621031204842737e+01 2.109846709387276675e+01 1.870791436835837018e+01 1.863068295544865194e+01 1.050010567067107203e+01 1.748018145044308413e+00 1.368391964948152228e+01 7.218620505324382819e+00 2.726659114070736578e+00 1.501369272263033139e+01 1.947465767921852375e+01 9.254417184904060178e+00 1.182820653987574921e+01 1.934559318368582836e+01 1.221803763557526601e+01 1.943972314077542451e+00 1.303849641791192671e+00 6.767836026856945963e-01 1.904423934228929838e+01 1.973235609663960233e+01 1.702846564959642350e+01 1.629049619748829514e+01 1.321896609763591002e+01 2.795651814881888075e+00 1.762177225790142288e+01 1.890624587829340086e+01 1.139596297428061789e+01 1.540284637636040443e+01 1.626400423606838430e+01 2.601214900807550023e+00 1.224382419180954784e+01 1.150138696555484152e+01 5.636757002035928110e+00 8.503320150464295679e+00 1.106252861119625841e+01 6.782663255300320770e+00 1.294041853114491403e+01 1.048571297517906586e+01 1.608164238978682192e+01 9.865432680170533430e+00 7.891675478854487391e-01 1.312919594728178829e+01 9.178544606602820011e+00 1.113201427754736628e+00 6.953851093988713927e+00 2.527664594227132078e+00 1.600847968577169311e+01 3.031568050892596844e+00 1.949277599875368239e+01 8.886285677942680650e+00 1.857923064106384103e+01 5.019912817979646391e+00 6.609498087177161807e+00 1.411434191974177077e+00 8.679218460582996952e-01 1.733542397316583461e+01 3.708670839273604081e+00 1.056403536198456194e+01 1.347830322751725696e+01 1.897728101677629908e+01 1.486406622131532984e+01 3.843081152629550523e+00 1.448860063190938341e+01 1.372933808227598718e+01 5.868571067633992833e+00 4.841709348591851203e+00 1.935649171173763605e+01 1.705429747073738156e+01 4.343906481486594195e+00 3.374152563252952319e+00 1.522793537473025260e+01 7.610309107091432601e+00 1.461464428371675162e+01 1.346102458854473660e+01 1.122352121699669070e+01 5.661193938169819084e+00 2.498717376255374489e+00 1.230706859117223573e+01 1.519741610369036700e+01 1.859535624836798107e+01 1.581925196838510850e+01 1.268074274462469653e+01 2.912556501345756388e+00 4.163462357251350276e+00 1.322957362616950405e+01 8.652509433640847902e+00 1.177398585119316543e+01 1.807859453494909729e+01 1.699806730079043149e+01 1.866503510871656246e+01 9.985566258273870233e+00 3.221961325677766830e+00 1.594179933400815541e+00 1.644167586074084042e+01 1.026270017882569263e+01 1.185712986484582920e+01 1.972696076001663101e+01 1.998429607680398945e+01 9.298987876757180970e+00 1.727645173147534852e+00 1.645540851168744823e+01 1.342692180451627770e+01 1.112015821583898045e+01 8.575851399715789469e+00 8.124287587881644512e+00 1.241075981449993471e+01 1.430574111193264919e+01 4.441453032023272129e+00 5.415382717613826946e-01 1.841243136376831657e+01 1.884851381177822915e+01 3.968344905900586195e+00 9.588726043666385479e+00 4.858451790039101326e+00 5.658598093514192406e+00 2.030759133873676348e+01 1.346384198196445858e+01 4.155997722936447758e+00 1.311281197991257308e+01 2.303933867212596631e+00 1.922759733084041400e+01 2.116001297860896813e+01 1.306977453756705820e+01 4.427255104922258461e-02 2.105280716187523282e+01 1.713704593725584369e+00 4.145276561479810162e+00 1.341172951598924179e+01 3.587083397823340292e+00 5.449807832156080556e-01 1.569178130845477170e+01 2.102363341056441826e+01 1.393508713224044193e+01 4.374674928091716097e+00 2.319873386724574438e+00 9.819350144224729959e+00 1.618629883092182808e+01 2.759525269861473062e-01 9.236114695749419568e+00 1.200605366729964629e+01 9.683956797919970327e+00 1.093816303847830440e+01 1.191663862646994509e+01 1.339919546042691145e+01 1.769847646636105765e+01 2.657756564277072631e+00 7.155600818601844715e+00 3.926730834248789215e+00 5.727680930741926524e+00 1.643533757472810919e+01 7.760877262114432185e+00 1.542478544468659951e+00 1.077465933681097221e+00 1.932087276794549169e+01 1.308226242320004573e+01 3.647089926414395222e+00 1.451988626638294910e+01 1.080921985581738021e+01 3.279992461639867685e+00 1.655554111398057771e+01 1.374181526168922929e+01 1.952002974868531737e+01 2.752810478565514085e+00 1.184589139538161540e+01 1.258789223878423869e+01 2.575601160567177583e+00 4.205600111564003818e+00 1.776070889910789319e+01 6.508718034977466260e+00 3.044989485309381738e+00
7.233618707738066256e+00 9.284376535351187343e+00 1.344555715856512990e+01 2.208262654368979394e+00 2.946276387191361645e-01 4.987504780561578421e+00 6.965520370185688037e+00 7.614694420081383974e+00 2.471457520419287235e+00 7.615501231375612967e+00 1.079342252868787355e+01 4.976576316464998762e+00 7.609537310815722044e+00 6.915991052858008636e+00 1.221961733073020540e+01 1.292633677181713558e+01 9.553494675445357576e-01 1.480863353335185195e+01 8.892880215728627746e+00 4.147410673094061195e+00 7.311122343818193592e+00 3.096999611327164281e+00 1.298581316166567134e+01 6.625099292376977367e+00 8.314090678109424815e+00 1.585552729627880986e+01 1.477060194115535552e+01 7.113601840942282095e+00 5.767988729756853061e+00 1.030787863345507915e+01 1.001426470904242194e+01 1.096187713420881060e+01 1.508182007921303658e+01 1.045289729089302710e+01 1.237328815753751243e+01 9.902032805555027295e+00 8.547621822374706468e+00 1.558352136638333718e+01 7.201847989127798222e+00 1.089493948263898560e+01 1.372942211331570128e+01 1.838983373250524966e+00 1.293397561277852148e+01 1.141009743906713325e+01 1.418440459867897552e+01 1.484666528492729753e+01 1.375508679444679583e+00 1.324428685741322198e+01 5.693534442556903663e+00 2.661196263904514581e+00 8.081897599330732263e+00 6.236783890655796192e+00 4.338707909195271384e+00 1.641041580093689944e+01 1.152450292568673618e+01 6.422337489764179175e+00 1.236430666688143498e+00 1.222899218922542630e+01 1.205512373678673832e+01 2.802100773295770342e+00 8.617142040212135257e+00 6.395189228433826756e+00 7.986658636486995144e-01 1.008329921708258858e+01 5.228175450567335680e+00 3.317561904188770949e+00 7.804695046150298410e-01 1.241405986438056352e+01 7.053789731202187774e+00 1.212514617274173645e+01 7.560606679443663936e+00 3.940089558728768537e+00 1.065869932419892940e+01 1.674442232871860448e+00 1.647638886902588951e+01 1.313584284830098703e+01 4.204406715445104581e+00 3.679607610896272529e+00 5.970789191836838761e+00 1.284480991760689506e+01 8.630365932274592922e+00 1.611774303173795886e+01 1.409902820411283564e+01 1.212646559907787847e+01 5.918186334172190755e+00 8.344162896150915998e+00 1.642449919542456627e+01 1.147601148137738036e+01 1.459403861368793409e+00 8.104556019112061804e+00 8.722647244330261174e+00 1.379046598856291439e+01 6.659478043658988433e-01 5.343461643395886362e+00 1.443337074387976315e+01 6.030880052995361673e+00 6.459524063025602558e+00 1.372568930540468202e+01 1.579734879792858671e+01 1.186603762370762638e+01 8.483318301467422273e+00 1.604385005512013862e+01 1.118563927473363329e+01 5.960166725142792998e+00 6.029999289027971443e+00 1.171210882652906093e+01 1.109719365576252414e+01 4.130693310843221999e-01 9.146043751427267665e+00 2.529326445817726476e+00 1.357965921298805156e+01 1.100323118402893458e-01 1.082150877139781109e+01 9.271914754027115180e+00 7.785657556559571368e+00 1.548668970321931049e+01 4.971059470541228542e+00 8.287481332446395399e+00 1.309925684967443793e+01 4.221129219191345427e+00 8.069941437842288678e+00 1.314151989216498428e+01 1.000650821463403695e+01 1.228736132524384672e+01 1.618845646902669344e+01 7.424544359827562889e-01 2.329550391766781914e+00 1.379390196607269559e+01 1.493762192606548211e+01 1.352144357114032047e+01 9.824450524690282904e+00 5.294346071032817846e+00 1.460989736591438604e+00 3.436411393847334850e+00 1.504679095234453001e+01 7.072099269062520399e+00 1.323883148592980241e+01 2.095607965381233839e+00 1.384779575447557143e+01 1.077257442792132203e+01 1.092103668223374235e+01 1.395076682767537690e+01 1.375070995624252035e+01 1.488118934126336690e+01 8.100449629225508374e+00 1.038479011281047804e+01 7.798207030076395263e+00 8.098935800243085126e+00 1.963748244747403060e+00 1.598196004129317593e+01 1.020980752707125205e+01 4.353379247073124070e+00 1.451101520552566626e+01 6.683909744890181415e+00 1.774115932878348900e+00 1.360945979185025934e+01 1.074366587823090846e+01 8.307894535266424185e+00 8.271978043561643901e+00 3.862929289394474441e+00 1.508716654314806505e+01 3.927579958684499495e+00 4.242551951028751489e+00 6.321303223171038432e+00 6.693889887262187699e-01 3.168741246429356728e+00 1.386621557699115437e+00 1.360976654356561966e+01 8.125377513886375525e+00 3.080791449548124561e+00 9.419640368401601904e+00 8.915884985903099746e+00 3.271694238052364145e+00 1.551638473776240090e+00 8.812931724454331928e+00 1.315130746090813041e+01 6.404849810982657488e+00 9.312705190456629367e+00 1.049797905863804948e+00 5.184316948725366636e+00 4.482285820224737094e+00 1.497876870610975786e+01 1.275214190961257010e+01 1.484660342829414503e+01 2.479068180026429147e+00 9.623337138511502076e+00 1.106433380763243868e+01 1.096697797233055383e+01 7.069177787306641036e+00 1.179196289084790905e+01 1.397367979955214778e+01 1.206038326474522471e+01