-3.977934090700000070e+03
-3.914395571099999870e+03
-3.907895561700000144e+03
-3.910262613400000191e+03
-3.908528473100000156e+03
-3.937888924899999893e+03
-3.942202067100000022e+03
-3.960588221399999838e+03
-3.947584358499999780e+03
-3.935181177999999818e+03
-3.955726707799999986e+03
-3.910984839300000203e+03
-3.928472046200000023e+03
-3.908875253499999872e+03
-3.980193961299999955e+03
-3.916596393299999818e+03
-3.926583037100000183e+03
-3.982020772299999862e+03
-3.975303671099999974e+03
-3.969041507200000069e+03
-3.972400137399999949e+03
-3.958202257800000098e+03
-3.939712113600000066e+03
-3.978552327800000057e+03
-3.955265294499999982e+03
-3.941933216899999934e+03
-3.925107031800000186e+03
-3.905300424900000053e+03
-3.970179124199999933e+03
-3.957329976200000146e+03
-3.954285256499999832e+03
-3.944694277500000226e+03
-3.955085695000000214e+03
-3.915325849400000152e+03
-3.946342302800000198e+03
-3.970002974699999868e+03
-3.919080528099999810e+03
-3.954387773399999787e+03
-3.960349233399999775e+03
-3.967659306000000015e+03
-3.975432888599999842e+03
-3.965299444899999799e+03
-3.976892052700000022e+03
-3.965076995700000225e+03
-3.966294350399999985e+03
-3.981855761499999971e+03
-3.951435443500000019e+03
-3.948486551999999847e+03
-3.953816342099999929e+03
-3.981100534000000152e+03
-3.956597577800000181e+03
-3.971890498499999921e+03
-3.947893566300000202e+03
-3.945425065800000084e+03
-3.980121621799999957e+03
-3.963799651700000140e+03
-3.969761992700000064e+03
-3.950156012899999951e+03
-3.972984950099999878e+03
-3.964125117200000204e+03
-3.928965935199999876e+03
-3.962533333299999867e+03
-3.971463577299999997e+03
-3.929635506300000088e+03
-3.945647078899999997e+03
-3.979671630199999981e+03
-3.952905396600000131e+03
-3.919009920999999849e+03
-3.982199551700000029e+03
-3.939875331499999902e+03
-3.980996192999999948e+03
-3.911833465400000023e+03
-3.960872288200000185e+03
-3.933541156199999932e+03
-3.961858870999999908e+03
-3.948566541099999995e+03
-3.926115996300000006e+03
-3.932575690499999837e+03
-3.913888994399999774e+03
-3.919907611000000088e+03
-3.956696578999999929e+03
-3.961503491099999792e+03
-3.955716047400000207e+03
-3.924188055399999939e+03
-3.956838743700000123e+03
-3.929115592699999979e+03
-3.946576330200000029e+03
-3.900856080600000041e+03
-3.981005130300000019e+03
-3.958078182899999774e+03
-3.958517048300000170e+03
-3.933973103499999979e+03
-3.956370034399999895e+03
-3.953481683299999986e+03
-3.979657460299999912e+03
-3.969257115400000202e+03
-3.944145160699999906e+03
-3.945304181200000130e+03
-3.906376534200000151e+03
-3.949486924700000145e+03
-3.939481251100000009e+03
-3.913270449300000109e+03
-3.945925977899999907e+03
-3.932707029700000021e+03
-3.930075150000000122e+03
-3.952498529599999983e+03
-3.957426065499999822e+03
-3.978853899300000194e+03
-3.937811535599999843e+03
-3.980749616399999923e+03
-3.936697446399999990e+03
-3.982258342000000084e+03
-3.955545389800000066e+03
-3.922816523500000130e+03
-3.961044766999999865e+03
-3.916341018499999791e+03
-3.966199534599999879e+03
-3.947670934400000078e+03
-3.967291835900000024e+03
-3.928072968800000126e+03
-3.914647385100000065e+03
-3.969641781199999969e+03
-3.915703546199999892e+03
-3.968658806699999786e+03
-3.949012997899999846e+03
-3.906800931899999796e+03
-3.964239120199999888e+03
-3.950798578699999780e+03
-3.873401453299999957e+03
-3.970514997599999788e+03
-3.964493869200000063e+03
-3.948922716699999910e+03
-3.956345254700000169e+03
-3.972818522099999882e+03
-3.931161942700000054e+03
-3.929049235099999805e+03
-3.947939351999999872e+03
-3.959609318899999835e+03
-3.933762174299999970e+03
-3.946364800800000012e+03
-3.936035414800000126e+03
-3.956781888399999843e+03
-3.891255767900000137e+03
-3.965077038699999775e+03
-3.943706894200000079e+03
-3.922316492500000095e+03
-3.929102446400000190e+03
-3.982720254100000147e+03
-3.926614444299999832e+03
-3.981327535800000078e+03
-3.954219605400000091e+03
-3.909575346499999796e+03
-3.923341138799999953e+03
-3.985424160099999881e+03
-3.933503914100000202e+03
-3.903033154000000195e+03
-3.937989703400000053e+03
-3.977621223199999804e+03
-3.972907945500000096e+03
-3.944301679900000181e+03
-3.957703801999999996e+03
-3.937638867499999833e+03
-3.918318393900000046e+03
-3.960480379199999788e+03
-3.916768587399999888e+03
-3.969380195400000048e+03
-3.925153458400000090e+03
-3.925111899800000174e+03
-3.968905358099999830e+03
-3.920175713300000098e+03
-3.947608027000000220e+03
-3.974817410099999961e+03
-3.955382851899999878e+03
-3.966752882700000100e+03
-3.950960558400000082e+03
-3.934433359399999972e+03
-3.962899964300000192e+03
-3.966552641199999925e+03
-3.948849704199999906e+03
-3.923302030599999853e+03
-3.977782592900000054e+03
-3.946135968500000217e+03
-3.921899423200000001e+03
-3.956445379899999807e+03
-3.961859524899999997e+03
-3.969601956999999857e+03
-3.974518051099999866e+03
-3.908057297400000152e+03
-3.953823965600000065e+03
-3.967691261299999951e+03
-3.929438193099999808e+03
-3.981931316199999856e+03
-3.952769652899999983e+03
-3.953000707700000021e+03
-3.969530607199999849e+03
-3.921653256099999908e+03
-3.918724651999999878e+03
-3.968694972700000108e+03
-3.970881096000000070e+03
-3.946000529999999799e+03
-3.951260146499999792e+03
-3.969727856999999858e+03
-3.957139278600000125e+03
-3.948797552600000017e+03
-3.919902567900000122e+03
-3.912962533999999778e+03
-3.968732516399999895e+03
-3.946498663899999883e+03
-3.955987007700000049e+03
-3.968968755200000032e+03
-3.968319312999999966e+03
-3.951330545299999812e+03
-3.973196893899999850e+03
-3.911075504999999794e+03
-3.971834038599999985e+03
-3.949315776599999936e+03
-3.898888384700000188e+03
-3.967951291800000035e+03
-3.958644530600000053e+03
-3.918039486399999987e+03
-3.955406714600000214e+03
-3.913344677900000079e+03
-3.930710861300000033e+03
-3.962443992699999853e+03
-3.980594328700000005e+03
-3.974712102999999843e+03
-3.952242663500000162e+03
-3.962154084499999954e+03
-3.974492524400000093e+03
-3.961034430499999871e+03
-3.947585247500000150e+03
-3.960723560299999917e+03
-3.975551462299999912e+03
-3.971319492699999955e+03
-3.893678950099999838e+03
-3.955684363700000176e+03
-3.935807093899999927e+03
-3.948038994099999854e+03
-3.961504336200000125e+03
-3.970566898900000069e+03
-3.968200105299999905e+03
-3.969890526099999988e+03
-3.960177042700000129e+03
-3.978612611500000185e+03
-3.952214743699999872e+03
-3.971838953800000127e+03
-3.975939497800000026e+03
-3.965595426800000041e+03
-3.934398030199999994e+03
-3.965290776199999982e+03
-3.972881749600000148e+03
-3.930456591399999979e+03
-3.966771467399999892e+03
-3.971956530099999782e+03
-3.962349700700000085e+03
-3.966054665399999976e+03
-3.969277824400000100e+03
-3.907732879900000171e+03
-3.971270311899999797e+03
-3.953304848599999787e+03
-3.948041847699999835e+03
-3.894293225400000210e+03
-3.961102654400000119e+03
-3.954367485799999940e+03
-3.912171630800000003e+03
-3.960956408399999873e+03
-3.957633524200000011e+03
-3.926644248000000061e+03
-3.919473192699999800e+03
-3.941465764600000057e+03
-3.927863212400000066e+03
-3.937506318100000044e+03
-3.906661251900000025e+03
-3.963580468000000110e+03
-3.963560143900000185e+03
-3.897206446099999994e+03
-3.961405314399999952e+03
-3.948883852899999965e+03
-3.961941544799999974e+03
-3.980394193900000118e+03
-3.969971787099999801e+03
-3.897721078900000066e+03
-3.971967407999999978e+03
-3.872662549300000137e+03
-3.967383770899999945e+03
-3.970274284799999805e+03
-3.976169634200000019e+03
-3.936427265299999817e+03
-3.967311178999999811e+03
-3.976141529699999865e+03
-3.967248258300000089e+03
-3.951782296299999871e+03
-3.959797053599999799e+03
-3.934067176600000039e+03
-3.956089774399999897e+03
-3.967922943600000053e+03
-3.972012732099999994e+03
-3.973494854800000212e+03
-3.964920076400000198e+03
-3.934480237400000078e+03
-3.962739244599999893e+03
-3.961672034700000040e+03
-3.953028001700000004e+03
-3.910683785700000044e+03
-3.967324266999999963e+03
-3.880132139299999835e+03
-3.899536624800000027e+03
-3.948978174400000171e+03
-3.971845407799999975e+03
-3.973750821600000108e+03
-3.951662246400000186e+03
-3.977325570599999992e+03
-3.948147765400000026e+03
-3.905799118999999791e+03
-3.962365199700000176e+03
-3.935868863499999861e+03
-3.972503935300000194e+03
-3.947345358999999917e+03
-3.963630286600000090e+03
-3.915828079400000206e+03
-3.904545605299999806e+03
-3.956522842800000035e+03
-3.918849356900000203e+03
-3.947469738799999959e+03
-3.958536995800000113e+03
-3.922655696400000124e+03
-3.958650909899999988e+03
-3.902080932899999880e+03
-3.970160219200000029e+03
-3.956350119199999881e+03
-3.952206423900000118e+03
-3.953107804499999929e+03
-3.966696678899999824e+03
-3.961016188999999940e+03
-3.955668438000000151e+03
-3.918779877299999953e+03
-3.972848432700000103e+03
-3.924246065799999997e+03
-3.911741013299999850e+03
-3.910561795399999937e+03
-3.936968212799999947e+03
-3.943482263100000182e+03
-3.967852954099999806e+03
-3.937508671600000071e+03
-3.931998690400000214e+03
-3.959796750900000006e+03
-3.959503643999999895e+03
-3.948701324999999997e+03
-3.959763016400000197e+03
-3.969409336199999871e+03
-3.927759985600000164e+03
-3.961389006700000209e+03
-3.961837585700000091e+03
-3.916685553400000117e+03
-3.955132919900000161e+03
-3.918581188799999836e+03
-3.917012109700000110e+03
-3.972219393100000161e+03
-3.943322665000000143e+03
-3.974745612100000017e+03
-3.967554919600000176e+03
-3.978399151300000085e+03
-3.939676121999999850e+03
-3.965160565199999837e+03
-3.952512106600000152e+03
-3.919604380299999775e+03
-3.973615927700000157e+03
-3.955064691500000208e+03
-3.974336022699999830e+03
-3.910457318400000077e+03
-3.956161927600000126e+03
-3.969464707300000100e+03
-3.976061884199999895e+03
-3.961658594999999877e+03
-3.943426001599999836e+03
-3.947153991199999837e+03
-3.911895258999999896e+03
-3.957245089000000007e+03
-3.956650896199999806e+03
-3.958065770600000178e+03
-3.920204204199999822e+03
-3.965527510999999777e+03
-3.912509184900000037e+03
-3.957577745200000209e+03
-3.958411025100000188e+03
-3.964797752899999978e+03
-3.908409240699999827e+03
-3.953967087800000172e+03
-3.973443702200000189e+03
-3.939202145799999926e+03
-3.960937754300000051e+03
-3.949956792999999834e+03
-3.973863022800000181e+03
-3.969121265700000095e+03
-3.957341271700000107e+03
-3.897456862999999885e+03
-3.973961883200000102e+03
-3.966217856400000073e+03
-3.963143454099999872e+03
-3.943686792900000000e+03
-3.981898565099999814e+03
-3.918406309699999838e+03
-3.942357117099999869e+03
-3.897686967000000095e+03
-3.949651670199999899e+03
-3.967275251900000058e+03
-3.943397567699999854e+03
-3.937171548799999982e+03
-3.906318396399999983e+03
-3.966861863699999958e+03
-3.948833496400000058e+03
-3.981119830699999966e+03
-3.967610884100000021e+03
-3.905102145299999847e+03
-3.952287386299999980e+03
-3.947364013800000066e+03
-3.948045153000000028e+03
-3.955201287400000183e+03
