-1.591696030000000137e-02 8.099237950000000297e-02 1.064285560000000075e-02 7.872522256999999746e-01 1.037297639199999955e+00 -3.842848141999999911e-01 -4.091856209999999994e-02 9.926988372999999699e-01 -5.477882270999999692e-01 -5.163163719000000151e-01 -1.166141312599999980e+00 5.367255892000000195e-01 -8.638252493000000420e-01 -1.311960385000000007e-01 4.530588971999999770e-01 3.813138540000000215e-02 2.609004087999999832e-01 7.074761879999999503e-02 -4.204129919999999992e-02 -1.843535752000000083e-01 1.119400566999999985e-01 -8.784726832999999457e-01 5.063565261000000373e-01 -6.380416869999999685e-01 1.994815226999999969e-01 -4.826460147000000145e-01 -3.928342440000000269e-02 -6.522203556000000235e-01 -1.058892571699999952e+00 5.423049228999999860e-01 -7.413125358000000054e-01 -8.873240306999999882e-01 3.711997389999999869e-02 -5.486476162000000212e-01 6.817677014999999896e-01 -1.947192989000000041e-01 6.267502960999999928e-01 2.094752223999999940e-01 -3.026476229999999767e-01 -5.283208705999999921e-01 -2.932429346000000048e-01 6.098523558999999761e-01 -1.473656108999999992e+00 2.571426570799999922e+00 -4.449246209999999785e-02 1.664257882600000071e+00 -6.847550851000000494e-01 -8.692459175000000204e-01 1.479852977999999986e-01 4.169138993000000015e-01 6.608919011999999649e-01 -1.689803129900000034e+00 -1.194345398699999894e+00 2.104404897000000108e-01 4.489790936999999982e-01 -2.378765281000000120e-01 -8.275861330000000571e-02 1.121970663399999957e+00 4.721769398999999812e-01 -6.686500519999999392e-02 -9.126043970999999644e-01 6.281359078999999568e-01 3.990218090000000051e-01 -3.007494313999999891e-01 -1.341669019999999941e-02 -3.956376100000000284e-02 1.342360131299999981e+00 -6.903910824000000224e-01 4.162861939999999983e-01 3.881507131999999971e-01 -1.532634306899999910e+00 -2.559136697000000016e+00 7.229163399999999351e-02 -3.526489039999999853e-01 5.427448099999999664e-01 -3.995419822999999870e-01 -3.778387254500000125e+00 1.711351798499999965e+00 -3.069295832000000224e-01 1.822348842000000024e-01 9.587008160000000390e-02 -1.565838695200000075e+00 6.402230574999999702e-01 -2.238535148999999946e-01 7.967413917000000234e-01 -4.500537500000000371e-03 -4.329882549999999886e-02 2.232285605399999984e+00 1.553230626999999864e-01 -3.109680362000000198e+00 -2.010679830499999987e+00 -7.873906607999999752e-01 -9.729950058999999873e-01 -3.604946956999999785e-01 5.301944565999999748e-01 5.535337109000000311e-01 -8.484572311000000422e-01 1.286565251599999904e+00 5.522432026000000382e-01 -1.220172021400000029e+00 2.941262457600000157e+00 2.659315427999999759e-01 1.752442731199999937e+00 -2.991959065200000101e+00 -3.913331184000000129e-01 -1.047100792000000002e-01 -6.831630230000000636e-02 1.083131620999999989e-01 -7.852521780000000506e-02 3.022412597999999950e-01 5.565581631999999557e-01 2.199717378000000112e-01 2.882493856000000187e-01 -6.512932037999999979e-01 -3.398982522999999811e-01 1.278109359999999965e-02 -1.900894694999999968e-01 5.826798205000000008e-01 1.229619926999999946e-01 -5.820388088000000293e-01 4.575609292999999744e-01 1.516289970999999959e-01 1.686465477000000102e-01 -1.613584038299999968e+00 6.532608580000000276e-02 -7.241963746999999785e-01 -6.766256077000000202e-01 -7.464012355000000376e-01 5.909731388000000196e-01 -8.900969637000000212e-01 1.441018169699999962e+00 1.040001787400000044e+00 7.809698750000000356e-01 1.185428300000000101e+00 -6.526889339999999984e-02 9.706422699999999945e-03 -1.453726047999999993e-01 1.801256900000000050e-01 -5.069038057000000430e-01 4.485290219999999994e-01 -7.276019659999999334e-02 2.269591089999999922e-01 -1.297784063000000099e-01 -6.426786265999999692e-01 -6.120851260000000071e-02 -1.906548315999999910e-01 -4.158277852999999746e-01 4.817719010000000024e-01 3.640422224000000040e-01 9.532767220000000485e-02 -1.909578623000000031e-01 1.573855544599999989e+00 3.312277356200000078e+00 -2.754912259000000252e-01 -1.476689425999999916e-01 -2.865022724999999881e-01 9.962885840000000603e-02 -2.088387580999999937e-01 1.592720904000000104e-01 -5.604890490000000169e-02 -5.723686189999999813e-02 7.633989509999999923e-02 1.434281064599999933e+00 -2.967875983199999901e+00 -1.028833710600000062e+00 -1.899895573000000004e-01 2.042238784599999857e+00 -2.308970777099999871e+00 1.708573294700000078e+00 3.592283354999999956e-01 -7.061939000000000150e-04 -2.945472701999999887e-01 1.706532592999999987e-01 -1.596689880000000117e-01 6.204923220000000406e-01 -1.196948832699999965e+00 2.208580921299999833e+00 1.860066499300000009e+00 1.540220746199999935e+00 1.130989262199999956e+00 8.926186469999999873e-02 -1.866582669700000086e+00 1.420246398099999974e+00 -1.840870820999999935e-01 2.301125756999999883e-01 -1.559213323100000048e+00 1.354563733800000058e+00 4.768858066000000173e-01 5.168676789999999688e-01 -1.659740160000000020e-01 -1.715693638999999937e-01 -1.471905931999999972e-01
3.710284694000000050e-01 -3.046618346000000144e-01 1.666636419999999869e-02 3.531770718999999725e-01 4.711549260000000294e-02 -6.728107719999999459e-01 3.867079861000000118e-01 -1.648501511000000086e-01 5.141996501000000164e-01 -1.495809993999999976e-01 3.355720904999999754e-01 4.783991758999999733e-01 1.423486139999999983e-02 -3.769246177999999725e-01 2.206986112000000055e-01 1.669228070000000064e-01 -6.888506889000000077e-01 -3.882846792999999908e-01 1.897031633000000050e-01 -1.164640326000000031e-01 7.241182679999999539e-02 -3.062947538999999941e-01 3.468181513999999965e-01 -3.323411826000000069e-01 3.372174941000000148e-01 -6.014989849999999999e-02 1.510216194000000012e-01 2.187885890000000055e-01 1.009109125999999995e-01 1.981332496000000054e-01 5.650339868000000543e-01 8.850960680000000136e-02 -4.426622700999999771e-01 -2.567739892500000121e+00 4.195258389999999976e-02 -5.482290924999999593e-01 3.814969072000000128e-01 -2.546132157000000062e-01 -5.210299443000000474e-01 4.533255139999999711e-02 8.922958024999999571e-01 4.179413182999999754e-01 3.380566997000000184e-01 -3.557317725999999958e-01 2.385128823999999870e-01 3.498379557999999889e-01 -9.092429639999999313e-02 -1.286170657000000050e-01 3.597592696999999951e-01 3.641363148000000272e-01 2.851856316999999974e-01 -6.756206128999999727e-01 -5.595804089999999870e-02 -6.452587784000000104e-01 1.560353613000000084e-01 -4.126069965999999978e-01 1.310712500000000072e-03 5.736600195000000069e-01 -2.585553309599999849e+00 4.874106453000000005e-01 2.895779803999999902e-01 -8.288273220000000330e-02 2.250768838999999966e-01 3.981141769000000052e-01 7.480794723999999452e-01 -1.041651977999999978e-01 -5.395837049999999829e-02 1.345400297999999883e-01 8.180223936999999612e-01 -3.920011592000000045e-01 4.409741345000000035e-01 -3.063508676000000208e-01 4.498799821000000199e-01 4.862766389000000022e-01 5.218907699000000511e-01 2.645701913999999877e-01 1.307659811999999921e-01 -4.361282611999999781e-01 -2.095589096999999901e-01 -2.852836141999999797e-01 3.993436000000000208e-01 -1.718749333000000046e-01 2.370345114000000086e-01 2.894299761999999943e-01 -2.984737773000000205e-01 -5.199823109000000221e-01 3.956782435000000264e-01 -3.496484885999999737e-01 -1.170350534700000056e+00 -5.290824466000000337e-01 -3.074646914999999980e-01 2.724532888999999791e-01 2.454935535999999974e-01 2.659358146999999950e-01 -1.705439700000000022e-03 -1.819938396999999930e-01 5.626541727999999631e-01 4.561859590000000297e-02 7.639690637999999590e-01 -6.181496612000000335e-01 3.716563575999999869e-01 2.009342041999999939e-01 -1.465932880999999965e-01 4.809301343999999867e-01 -8.483733979999999453e-02 6.106149488000000014e-01 -4.094808404999999984e-01 -8.671860530999999650e-01 3.514427018999999874e-01 5.300645350999999561e-01 -4.133102620000000255e-02 -4.181021710999999752e-01 -2.530273560999999893e-01 -1.718074623999999995e-01 -1.446592421000000017e-01 8.110218068000000224e-01 -1.176527069000000009e-01 -3.173052265999999899e-01 -4.335959254000000263e-01 -6.872122900000000346e-03 1.487178516000000061e-01 1.445864366000000067e-01 2.579080329999999810e-01 -4.406812909000000222e-01 1.946345067999999956e-01 -3.701803209999999789e-01 -4.707861998999999797e-01 -2.526667920999999817e-01 -1.467802850000000103e-01 3.443410874000000232e-01 1.830136010000000049e-02 -5.016276771000000023e-01 1.394064621999999976e-01 -2.708432780999999734e-01 -1.283195557000000042e-01 2.720974782999999730e-01 -5.356388018000000084e-01 1.939403480999999929e-01 -4.569264302000000111e-01 8.965359019999999401e-02 -4.711527623000000276e-01 -9.623597579999999818e-02 5.535705689999999984e-02 -6.102417011999999863e-01 3.051603546000000167e-01 1.554069620999999901e-01 -7.759468310000000590e-02 -2.204494254000000097e-01 5.418401469000000414e-01 2.271573162999999951e-01 -3.735928023000000264e-01 1.851082158000000033e-01 -1.334639998000000105e-01 -2.017665808999999921e-01 -5.506896257000000183e-01 1.943262088000000110e-01 -5.155594060000000534e-01 3.843580555199999971e+00 -1.461389338000000093e-01 1.512812510000000055e-01 -7.056148278999999635e-01 -2.477960265999999967e-01 2.021421454000000006e-01 -4.419707077000000206e-01 -1.308228900000000042e-02 -5.124024462999999807e-01 4.009870980000000001e-02 -3.071113035999999963e-01 2.273923103000000112e-01 -5.529487132000000527e-01 2.714472249999999934e-02 9.747237640000000480e-02 4.397093585999999887e-01 -7.004521110000000439e-02 -2.828534702000000123e-01 -6.832132220000000089e-01 2.358614236000000086e-01 2.321665705300000049e+00 -1.327390542000000118e-01 4.662348400999999920e-01 -1.064191034500000077e+00 -3.635494200000000033e-03 1.717032889000000007e-01 -4.602606710000000101e-01 1.374794031000000083e-01 2.047817749999999992e-02 -7.245188210000000351e-02 3.283666530000000083e-01 6.471454397000000469e-01 8.572360800000000669e-02 -3.272912709999999947e-01 3.665456834999999969e-01
3.133866427500000107e+00 -1.842324793199999977e+00 -1.975899638400000047e+00 -6.028381342999999948e-01 2.647965549999999890e-01 2.448950632999999932e-01 7.528088970000000602e-02 1.987790741000000083e-01 -6.207361399999999918e-03 -5.788473975000000271e-01 -4.253121042999999935e-01 1.061419678999999949e-01 -5.373848957000000315e-01 5.486045387000000328e-01 1.156542890000000073e-02 -5.413209979999999977e-02 -6.507561871000000497e-01 1.334683684000000092e-01 9.495385080000000311e-02 1.965011366999999953e-01 4.475149393999999781e-01 2.279952551999999966e-01 1.996780116999999910e-01 -1.468838410999999955e-01 -7.070332590000000250e-02 -1.887015881000000117e-01 -5.247730579999999589e-01 5.127544629999999937e-02 -5.284590710000000024e-01 -3.053123393000000130e-01 3.831043525000000227e-01 -4.482866092000000191e-01 6.237439639999999702e-02 -1.540460827000000033e-01 -3.029847010999999757e-01 -1.865750370000000130e-02 3.601298048000000085e-01 -3.452444736999999986e-01 2.175401042000000007e-01 -3.665193012500000069e+00 1.212666015799999997e+00 3.852627592799999778e+00 -2.308204812999999911e-01 -3.492486861999999914e-01 3.983417617000000188e-01 2.908142588000000028e-01 -8.075937099999999647e-02 1.520602225000000085e-01 3.946482136999999724e-01 4.278670768000000235e-01 4.705368681000000053e-01 3.398394762999999985e-01 8.860626720000000511e-02 -2.742427143000000234e-01 -3.439734442999999864e-01 1.420537708000000066e-01 -3.351746594000000190e-01 3.052386609000000139e-01 3.905988522000000129e-01 -2.822989048999999806e-01 -1.208362671000000055e-01 -1.094875282999999977e-01 -1.026923358000000064e-01 1.980149512999999917e-01 -5.605023197000000401e+00 2.363687072699999892e+00 -2.838685288999999723e-01 -1.195206032000000057e-01 2.584240622000000265e-01 -9.729054839999999593e-02 2.268235928000000012e-01 7.780530580000000196e-02 -4.032256202999999761e-01 -7.039332019999999801e-02 1.376182813999999865e-01 1.924246091000000047e-01 -1.461582300000000001e-01 -9.316458390000000034e-02 3.993299811000000088e-01 -9.690002529999999781e-02 5.053853805000000365e-01 6.469831421999999721e-01 4.175345672999999924e-01 -2.665753149000000266e-01 -5.499794571999999659e-01 -1.255185859999999876e-01 1.758018581999999941e-01 2.079256667000000114e-01 -8.223089100999999568e-01 4.317957893000000102e-01 -3.701985922000000095e-01 2.437306040000000035e-02 9.393601170000000222e-02 7.216987660000000193e-02 -4.059879727999999854e-01 7.111895092000000140e-01 1.641694307999999880e-01 3.209390014999999874e-01 -5.376815799999999923e-01 -1.648593042000000009e-01 2.886511382999999986e-01 3.647840981000000093e-01 3.128977037299999875e+00 4.277795454399999642e+00 -6.541438856700000137e+00 2.460484970000000049e-02 2.137555580999999927e-01 -6.918461577000000196e-01 2.596732668000000244e-01 9.644825822000000493e-01 -7.779314442000000440e-01 -8.587602002999999984e-01 -4.988301800000000119e-02 3.061795527000000239e-01 7.368909554999999445e-01 6.496875301000000213e-01 6.407490659999999505e-02 1.679357754999999952e-01 -1.090283259200000021e+00 6.275435440000000364e-02 -3.394909434000000226e-01 -4.540144873999999997e-01 4.010812500000000141e-02 -1.778098882999999963e-01 -2.128440312000000056e-01 -3.872581918999999928e-01 5.846889763000000517e-01 -1.734943233000000029e-01 -2.604674634999999960e-01 5.336387763000000062e-01 -1.208666659999999976e-01 -3.262935344999999820e-01 1.083723907999999958e-01 4.297812892999999801e-01 5.420631759999999799e-02 1.035911523000000029e-01 -3.124897366000000121e-01 4.087523030999999918e-01 -4.667747575000000260e-01 -9.564772180000000179e-02 -4.090303820000000257e-01 -1.782175814999999997e-01 2.918900569999999944e-02 4.394393249999999779e-02 2.239205628800000181e+00 -1.397548999999999992e-04 -1.892748655099999899e+00 -2.610308048000000158e-01 1.799329453000000079e-01 4.460878568000000155e-01 -2.446191981999999987e-01 4.491119525999999751e-01 -2.323854855999999969e-01 -2.236112742999999958e-01 5.097373964000000424e-01 4.160107200000000283e-02 8.550975362999999607e-01 -1.874577812000000065e-01 8.064407899999999352e-02 -1.762023243700000075e+00 2.552211166000000198e-01 1.422146756599999895e+00 -3.083348593999999832e+00 1.238248200999999993e+00 1.688317028700000000e+00 -1.417675245000000084e+00 8.826866160000000627e-02 1.700224250400000026e+00 -1.634566020999999869e-01 -2.321841222000000093e-01 1.174413301000000048e-01 4.002128555000000198e-01 6.220717930000000395e-01 3.810445591000000132e-01 6.472617027000000522e-01 -2.757852788999999860e-01 -2.230181467000000028e-01 3.294752026000000167e-01 2.284478590000000101e-02 -1.592477767999999905e-01 -3.955067999999999917e-01 5.533962240000000338e-02 -3.455363890000000271e-02 -1.577187180000000077e-01 5.632271693000000523e-01 1.131493583999999969e-01 -2.988257747999999991e-01 8.769742260000000511e-02 -7.078850909999999386e-02 5.992764178999999691e-01 2.836009924999999821e-01 -1.311597788600000092e+00
-1.113390444999999979e-01 9.277875570000000682e-02 -3.130580339999999850e-02 2.706819101999999866e-01 -1.839405899999999872e-01 2.822333330000000029e-02 -9.543811570000000633e-02 -1.482305224999999893e-01 -4.239565309999999976e-02 -1.617535730999999921e-01 3.900424939000000091e-01 -3.515944262999999848e-01 3.384563729999999770e-01 4.113418863000000147e-01 -7.052442300000000275e-02 -3.192972693999999723e-01 2.624450043000000066e-01 3.527571633000000095e-01 1.005421673999999932e-01 -8.869153429999999949e-02 -4.835518540000000032e-02 1.034567913999999977e-01 -2.665876875699999982e+00 -1.007165093000000011e+00 -1.096835871599999956e+00 -1.105808986999999993e-01 -2.207215560999999937e-01 -1.932914521999999913e-01 -1.362242942000000123e-01 3.710351416000000069e-01 2.997871309999999845e-01 -1.007133386800000086e+00 4.165918189999999743e-01 4.324533740000000015e-02 3.067282311500000080e+00 6.999257668999999682e-01 -2.863159413999999958e-01 -9.804669146000000168e-01 4.515562596599999701e+00 4.205560200999999831e-01 7.137552969999999553e-02 4.418783511000000108e-01 -3.675765227000000190e-01 1.263014106400000003e+00 -8.136071187000000204e-01 -4.860021593699999976e+00 -1.154077693000000043e-01 -5.350694675999999816e+00 -1.254884400299999925e+00 -3.607179064099999888e+00 5.089968762000000035e-01 -4.368488032999999771e-01 -1.172500647999999979e-01 9.253887130000000572e-02 3.956472450000000224e-02 1.441064388999999946e-01 6.084193990000000274e-02 8.941794409999999360e-02 2.014979310999999995e-01 -6.725183610000000367e-02 1.517200297800000097e+00 3.901852214399999852e+00 -5.809915594000000238e-01 2.154384611999999866e-01 1.417345285999999926e-01 3.475057483999999808e-01 2.890587249999999886e-02 1.322893505999999941e-01 -3.215748590999999990e-01 5.154217827999999502e-01 -1.114369281999999933e-01 3.437430277999999895e-01 5.345314146999999849e-01 -2.168808040000000048e+00 -1.311280278199999927e+00 -8.698151100000000788e-03 -4.200284363999999826e-01 3.621357152999999940e-01 -2.501966204000000138e-01 1.531403769000000137e-01 -2.487367746999999962e-01 -4.740512604000000074e-01 4.895077689999999954e-02 1.046088347999999946e-01 5.371514199000000378e-01 1.963244928099999953e+00 8.153636163999999908e-01 -8.361938797000000312e-01 4.269577216000000064e-01 6.142135315000000206e-01 -1.706398214000000024e-01 -5.539189198999999730e-01 -3.074776289999999954e-02 5.630465494000000071e+00 -2.032949293999999907e-01 1.032168208399999898e+00 2.048630925000000103e-01 5.163634940000000340e-02 1.557933136999999912e-01 4.550666899999999959e-02 -3.803325689999999953e-02 1.683522940999999939e-01 -6.492071900000000173e-02 3.509327560000000124e-02 -6.319572448000000398e-01 4.737150732000000031e-01 -4.370855732999999743e-01 -3.119732389000000050e-01 -9.720987799000000429e-01 2.915141956999999784e-01 1.260416006600000083e+00 -3.705350862999999828e-01 8.061189790000000688e-02 -6.442859580000000197e-02 -4.632009059399999629e+00 3.300022597999999752e-01 -3.559376313000000014e-01 1.846979396899999903e+00 -4.560633185700000425e+00 -3.550549050000000040e-02 -1.388744860999999997e-01 -4.173252961999999733e-01 -4.636946670000000048e-01 4.060555518999999780e-01 7.271592900000000137e-01 -5.095517633999999685e-01 -2.952659456999999765e-01 -2.619706159999999895e-01 3.234681643999999801e-01 -1.404166991100000095e+00 4.107251398499999873e+00 -7.288030797000000227e-01 -3.426322694000000224e-01 -9.445974710000000496e-02 -1.853186397000000096e-01 2.906623333999999725e-01 3.866803717000000251e-01 2.698482818999999866e-01 1.901814698000000026e-01 -3.261390734999999874e-01 9.247226264000000251e-01 3.171419515000000189e-01 6.802237075000000521e-01 -3.127133876000000035e-01 1.560761695000000004e-01 1.375270580000000076e-02 4.188241500000000062e-01 -2.834400160000000168e-02 1.121528096999999946e-01 -3.443147319000000040e-01 1.249280730000000006e-01 3.118159951999999735e-01 -1.457404374000000058e-01 -4.690686486000000266e-01 -4.040822380999999908e-01 3.443881793999999941e-01 -2.102006157000000097e-01 8.366265802000000251e-01 8.760156253999999976e-01 2.246805174000000016e-01 -6.616992170000000062e-01 -3.688270610000000255e-02 4.842875609600000075e+00 -2.479987260000000027e-01 3.598919620000000097e-01 -4.245581910999999820e-01 -5.036365991000000264e-01 -9.318131138999999896e-01 -2.580818511999999898e-01 2.763963642999999748e-01 -3.268954229999999905e-02 2.181585024000000095e-01 4.382333868000000132e-01 3.546608034000000020e-01 2.007806863000000108e-01 -3.238292179999999743e-01 -5.747459901000000482e-01 -2.286342596000000005e-01 -5.939419979999999849e-02 3.284826864000000013e-01 5.905330930000000089e-01 -1.191423932000000019e-01 -3.984382911000000083e-01 8.139602370000000031e-02 1.720086901000000001e-01 3.922406226999999856e-01 2.362330129999999917e-01 -4.426814840000000140e-01 -5.434626678999999738e-01 -3.728171425999999844e-01 -6.633639999999999676e-03 -1.802770334999999891e-01
-4.464943274000000017e-01 2.048929600000000129e-01 1.874375202000000129e-01 1.606920170000000064e-02 -9.356065010000000348e-02 1.521793285999999967e-01 -8.474699575999999901e-01 -6.480721957999999727e-01 -1.440100629999999937e-01 1.484954238999999898e+00 1.157633794999999993e-01 -2.122275120699999906e+00 3.357013757999999792e-01 3.315953326000000145e-01 4.453989772999999985e-01 -2.739702740000000136e-01 -8.724820849999999350e-02 7.620858512999999501e-01 3.557137046000000136e-01 1.374317348800000005e+00 -9.828143038000000109e-01 -4.412450730999999959e-01 1.374398139700000021e+00 1.213794638000000037e-01 -4.847317689999999790e-02 -8.002142422000000366e-01 7.510198649999999532e-02 3.144315889999999697e-02 9.976529330000000195e-02 -4.772164739999999739e-02 -8.792644000000000501e-03 9.285521639999999577e-02 -1.628847329999999829e-02 1.566839368999999871e-01 1.607254730999999881e-01 -1.201586978000000056e-01 4.639850809999999937e-02 7.670513516000000420e-01 5.795228327000000457e-01 -2.740524810100000153e+00 -1.483446780000000076e-01 -2.808035074599999792e+00 -1.238689712200000015e+00 5.878737086999999972e-01 1.555081407000000082e+00 2.636824430999999969e-01 6.109963366999999757e-01 -1.067656710000000064e-01 -3.389856105999999869e-01 2.533130527999999937e-01 -5.504127018000000149e-01 1.638547994000000008e-01 -5.988500867999999588e-01 1.144154413999999981e-01 -1.966408523000000019e-01 5.434676832000000513e-01 3.434383927999999919e-01 -4.136228935999999856e-01 2.121340210000000059e-02 4.426569454000000015e-01 -2.469132565000000112e-01 1.231273067500000096e+00 1.240806249000000056e-01 7.074405695000000049e-01 -1.898863206999999997e-01 -5.489613790000000271e-02 -1.454420902899999923e+00 1.659099917000000091e-01 -1.159843425000000039e-01 -2.823344367000000243e-01 -4.613633035999999965e-01 3.578169766000000029e-01 -1.819362960000000043e-02 -8.361157730000000343e-02 2.784703647999999809e-01 3.049371531000000246e-01 -2.251957645999999869e-01 -1.671282406000000054e-01 -3.310350623000000159e-01 -1.400346534999999948e-01 -1.969856016000000043e-01 -2.501073692199999865e+00 7.339447351000000230e-01 -4.311323805999999759e-01 -1.450062880000000005e-02 -1.584840918700000101e+00 4.342563053999999867e-01 -6.571832614000000516e-01 1.910742018000000098e-01 1.540079406000000040e-01 -2.292991256999999949e-01 -5.843312417999999564e-01 -2.461650870000000116e-02 -4.746812872999999766e-01 1.003415757099999972e+00 -8.467493525999999493e-01 5.602850456000000312e-01 -4.330370933000000089e-01 -3.859432009000000052e-01 8.657424630000000454e-02 2.298414518999999934e-01 4.573941329999999805e-01 1.039172089000000021e-01 3.394808300000000129e-03 -1.032389318999999972e-01 -1.959229239999999914e-02 -2.980966030000000155e-01 4.433037549999999799e-02 1.643096470000000170e-02 -3.245737727999999933e-01 7.487787720999999896e-01 -4.387810001999999931e-01 -1.389585443999999947e-01 -3.751198740000000198e-01 3.696915829999999903e-01 1.483626724999999869e-01 9.995182719999999577e-02 -1.674344098299999972e+00 -2.507830496099999973e+00 -2.015408302300000010e+00 6.310102227999999647e-01 -2.717590755000000025e-01 1.578189781999999874e-01 5.436514220000000092e-02 3.072476310000000210e-01 -2.550658842999999898e-01 5.216018152000000407e-01 -1.493411797200000057e+00 -5.005564600000000225e-02 -3.180304033999999946e-01 -7.946998319999999671e-02 -4.797251250999999828e-01 -3.025019790000000111e-02 2.279498275000000074e-01 -5.455827439999999529e-01 1.141836499999999976e-03 -8.146181930000000182e-02 -9.186478419999999367e-02 5.286754500000000016e-03 -1.887612350000000133e-02 1.286881190000000071e-02 3.055392696799999808e+00 2.111021248000000128e-01 2.148847119800000094e+00 1.764061560999999889e+00 1.939513349300000078e+00 1.442476845400000096e+00 1.090262684700000095e+00 -5.941789961000000231e-01 -5.798798899999999673e-02 2.399216899999999895e-03 1.639854906999999862e-01 -6.721272089999999477e-02 2.435359952699999830e+00 -1.272030151300000078e+00 8.745872502000000548e-01 2.500162888999999944e-01 1.300498164999999984e-01 -7.004867083000000383e-01 5.502184813999999591e-01 3.390097316999999832e-01 1.614905564999999932e-01 -6.427710024999999661e-01 4.725629855999999851e-01 2.701866452999999724e-01 2.593410422999999909e-01 -2.429544462999999876e-01 2.454673934999999918e-01 7.562566549999999443e-02 1.028114190000000046e-02 -4.573817160000000215e-02 -6.886527121000000085e-01 -1.341380983000000082e+00 -7.529723650000000323e-02 2.650128810999999862e-01 1.357185340000000018e-02 -4.508016630000000191e-02 -7.391759639999999354e-02 7.719600107999999850e-01 5.278396993999999731e-01 -1.929704775999999955e-01 1.217357057999999964e-01 -5.221941297000000093e-01 5.095129269000000516e-01 1.756914544000000022e-01 6.813717993000000250e-01 -2.428604349000000051e-01 2.091440762000000009e-01 -8.070160526999999862e-01 1.052327522699999962e+00 -5.956768375000000004e-01 1.358251418899999896e+00
2.044119929000000058e-01 -4.098056659999999712e-02 6.881481009000000038e-01 3.292912501999999964e-01 -4.202015848999999803e-01 -2.133002079999999842e-02 -2.843346279999999782e-01 1.383340899000000124e-01 -3.235819286000000128e-01 -3.114799659999999831e-02 -5.773069573000000343e-01 6.068909373999999968e-01 6.427288183999999571e-01 1.280612544800000085e+00 2.304937865199999880e+00 -1.145470827300000050e+00 -3.693618166000000036e-01 1.006315949400000020e+00 6.837334296000000533e-01 3.254778334000000273e-01 -9.641363888999999743e-01 1.664218268700000003e+00 6.136647118000000400e-01 -2.918871847000000241e-01 -2.246997836999999887e-01 2.779158199999999801e-01 4.124346146999999796e-01 -1.780429068999999920e-01 -1.993518608000000025e+00 -2.443320544800000160e+00 2.406857893999999887e-01 -2.106541563999999866e-01 -3.207252370000000102e-02 1.072318870499999965e+00 -3.414558628000000096e-01 -2.232916657000000027e-01 5.350347880000000389e-01 6.527880123000000534e-01 2.106022190500000058e+00 -1.618841460999999871e-01 1.389403221700000080e+00 -5.646057101000000467e-01 -6.503697217999999669e-01 -2.257763228000000122e-01 -1.634822210000000109e-01 7.302748257000000187e-01 9.665523789999999615e-02 -8.022580651999999812e-01 6.120744286000000534e-01 1.478501761000000081e-01 1.042176259999999938e-01 5.492296169999999478e-01 1.263583748000000062e-01 1.837605649000000063e-01 -2.578725137999999806e-01 2.536968264999999723e-01 1.470034506000000019e-01 1.058604723600000019e+00 -1.588126166799999961e+00 1.272066592799999896e+00 3.202091892000000217e-01 -5.856864400000000304e-01 -1.318958932000000028e-01 1.757993553999999958e-01 7.672094919999999929e-02 -1.079988077000000046e-01 -1.184195839000000028e+00 -4.753615003000000172e-01 5.472379121999999541e-01 -1.121500985999999978e-01 -2.506081940000000063e-01 -6.411884029999999346e-02 3.651972243000000118e-01 -3.757107560000000346e-02 -2.183739342000000083e-01 -7.848989610000000061e-01 6.075593653999999955e-01 1.284213080000000048e-02 -3.669879107999999834e-01 5.944771100000000204e-03 -1.180264350699999909e+00 -3.530234120999999892e-01 -1.687468198000000030e-01 4.015616543000000149e-01 5.130970729999999591e-01 -4.187326825000000086e-01 2.510026200000000166e-02 -4.701304526999999789e-01 2.238758335999999904e-01 -1.857975268000000013e-01 1.445456014099999908e+00 8.453427355999999504e-01 -2.820956652000000009e+00 5.897693052000000380e-01 -2.809570639999999786e-01 3.655585030999999874e-01 2.990681720000000210e-01 2.115339277999999934e-01 1.231018029000000014e-01 -3.920709400999999872e-01 3.471562275999999780e-01 2.814170904000000140e-01 -4.714587862999999879e-01 -1.568136756000000076e-01 -1.321236537999999905e-01 -1.159764818000000031e-01 3.605676289999999728e-02 -5.051857750999999563e-01 -5.625224111000000082e-01 -1.817283683200000111e+00 -1.073720644900000076e+00 -3.435352494000000201e-01 4.012420710999999862e-01 -6.949829180000000051e-02 -8.642699919999999869e-01 3.353521150000000062e-01 -1.606777120500000100e+00 1.648829210999999961e-01 7.402272229999999620e-02 -2.908119456300000127e+00 -1.487597471999999865e-01 2.572855345999999765e-01 -1.651532726999999923e-01 -4.497705141000000184e-01 -3.633324839999999695e-02 -5.484739397000000238e-01 3.319715340000000126e-01 3.098012794000000181e-01 -4.903227808999999771e-01 -8.822851620999999644e-01 1.337576879000000052e-01 -1.884155554999999982e-01 2.628719024000000237e-01 -3.928913444000000088e-01 -2.696444708999999884e-01 -2.838067199100000160e+00 -4.881424454000000135e-01 1.012742259499999964e+00 -3.937964280000000317e-02 4.788766723999999808e-01 2.003376783999999966e-01 -1.088351030999999969e-01 4.675205810999999989e-01 -3.735987358999999786e-01 4.291381597999999742e-01 6.467301870999999647e-01 -1.383174091999999911e-01 -4.786046250000000057e-01 2.166510567999999914e-01 2.169380888999999923e-01 8.737248719000000330e-01 1.649780552499999997e+00 1.528415876700000009e+00 -6.727514422999999466e-01 -3.874791125000000003e-01 2.914858697000000110e-01 -2.128643139999999989e-01 2.617673728000000088e-01 -5.598006582000000231e-01 -2.837611040000000140e-02 -4.654340829999999846e-02 2.722203391999999944e-01 7.517176410000000475e-01 -6.733731249999999613e-02 -1.979070397999999897e-01 3.633459766000000091e-01 -8.048099699999999856e-02 1.789814134000000112e-01 -5.088007918000000407e-01 -6.273340399999999782e-03 8.043451740000000516e-01 1.756690739000000001e-01 3.258207860999999816e-01 -4.421794782999999840e-01 6.428206417999999811e-01 -9.546216383000000194e-01 3.279069477699999791e+00 -7.606371359999999915e-02 -6.322071120000000155e-02 5.177325680000000041e-01 -1.449032192999999968e-01 1.957779853000000125e-01 6.484099710999999822e-01 -3.437229157000000201e-01 -2.536823676000000138e-01 3.050146355999999725e-01 -3.510545729999999809e-01 -4.443881930000000147e-02 2.107674797999999905e-01 2.119362740999999883e-01 -6.307461039999999741e-01 1.535324619000000002e-01