-3.543292434501785237e+01 -2.810046832481110535e+00 -1.332115813745559540e+00 -2.810046832481110535e+00 -2.782170549543897309e+01 1.598864248458665038e+00 -1.332115813745559540e+00 1.598864248458665038e+00 -5.059353581773244457e+01
-4.049395665686562751e+01 2.856262492925007446e-01 5.224961940210152811e+00 2.856262492925007446e-01 -4.130910542834889299e+01 1.349625478249244281e+00 5.224961940210152811e+00 1.349625478249244281e+00 -4.320796569313117175e+01
-3.122983597259374378e+01 -1.852340638955263907e+00 -1.438665322132218805e+01 -1.852340638955263907e+00 -3.262919188332536180e+01 2.831812894429464045e+00 -1.438665322132218805e+01 2.831812894429464045e+00 -4.094975663160484913e+01
-3.462030489307965553e+01 -1.746220351752103106e+00 -3.482951881204027905e-02 -1.746220351752103106e+00 -2.519003908770001843e+01 -8.473855488192223007e+00 -3.482951881204027905e-02 -8.473855488192223007e+00 -3.282992326059587640e+01
-2.055458232676646091e+01 -3.443318574625652495e+00 -1.500161164971210159e-01 -3.443318574625652495e+00 -2.592913658633890961e+01 -2.960367100620711955e+00 -1.500161164971210159e-01 -2.960367100620711955e+00 -3.358852138332581916e+01
-4.185228339658845442e+01 5.324424940011529550e+00 3.426509955351260128e+00 5.324424940011529550e+00 -5.091674770687854590e+01 1.997709637609500266e+00 3.426509955351260128e+00 1.997709637609500266e+00 -3.837493665376314311e+01
-5.476942325836569836e+01 -5.446374635828685307e+00 -3.181053228294187907e+00 -5.446374635828685307e+00 -5.474211732722023527e+01 7.541040510764985827e-01 -3.181053228294187907e+00 7.541040510764985827e-01 -5.385774344647472134e+01
-4.623783068572431176e+01 -4.079075142772580875e+00 -2.156392754211725826e+00 -4.079075142772580875e+00 -5.265638216986741327e+01 3.800723643701334531e+00 -2.156392754211725826e+00 3.800723643701334531e+00 -3.896496679351179893e+01
-1.174508755648798370e+02 -0.000000000000000000e+00 0.000000000000000000e+00 -0.000000000000000000e+00 -1.174508755691751531e+02 -0.000000000000000000e+00 0.000000000000000000e+00 -0.000000000000000000e+00 -1.174508758136507964e+02
-2.843009107066971453e+01 -7.902615526589635842e-01 9.090612917331421627e+00 -7.902615526589635842e-01 -3.954522084839214813e+01 2.374992134898132046e-01 9.090612917331421627e+00 2.374992134898132046e-01 -4.162923821240665490e+01
-6.131924236775309289e+00 -5.572212947733625299e+00 -4.798776499750081470e+00 -5.572212947733625299e+00 -1.990264280027144750e+01 3.303822348946869880e+00 -4.798776499750081470e+00 3.303822348946869880e+00 -2.578730457974683787e+01
-2.905533964915339951e+01 -1.067811610677403777e+01 -3.597676174456042375e+00 -1.067811610677403777e+01 -2.680980529191016615e+01 -5.331250879208055959e-01 -3.597676174456042375e+00 -5.331250879208055959e-01 -4.117456438933928808e+01
-3.356563372206968410e+01 7.548025034585180926e+00 -2.969330885551553223e+00 7.548025034585180926e+00 -3.345357655653860007e+01 6.262208833640398042e-01 -2.969330885551553223e+00 6.262208833640398042e-01 -4.555691720637541664e+01
-2.303213987079996272e+01 -9.207283921475001298e-01 9.624874514773882339e-01 -9.207283921475001298e-01 -1.841826964830678648e+01 -2.644864851166703446e+00 9.624874514773882339e-01 -2.644864851166703446e+00 -3.844804534813939512e+01
-5.917788586901466630e+01 -3.753929229539560986e+00 4.394972141870060689e+00 -3.753929229539560986e+00 -4.158438387849525952e+01 6.944551785661965404e-01 4.394972141870060689e+00 6.944551785661965404e-01 -5.461357400959195729e+01
-8.850182262944384703e+00 1.614012905276342336e+00 -1.096155531841066910e+01 1.614012905276342336e+00 -3.423872689347391685e+01 -5.853349161189510319e+00 -1.096155531841066910e+01 -5.853349161189510319e+00 -2.677661393089539743e+01
-5.376743227619201804e+01 -3.644831836628529498e+00 4.185840735395739975e-01 -3.644831836628529498e+00 -4.786790546437921279e+01 -1.473388210836473200e-01 4.185840735395739975e-01 -1.473388210836473200e-01 -4.495539051660204422e+01
-4.040402330312935675e+01 -4.866357681575076199e+00 -1.048084975683069686e+00 -4.866357681575076199e+00 -5.009928966164336117e+01 1.179312588360201985e+01 -1.048084975683069686e+00 1.179312588360201985e+01 -3.911383858782878775e+01
-2.006075088063848000e+01 1.499667320403129622e+01 -5.294754940994047310e+00 1.499667320403129622e+01 -1.586822879638894435e+01 -1.203984299665508928e+01 -5.294754940994047310e+00 -1.203984299665508928e+01 -2.250825063104259272e+01
-2.541642987019055511e+01 4.337267960703553804e+00 -2.077286245031876311e-01 4.337267960703553804e+00 -3.369970096650346392e+01 -6.353434271935247679e+00 -2.077286245031876311e-01 -6.353434271935247679e+00 -3.495143956720663425e+01
-5.341760763080787200e+01 -1.087755183359469591e+01 -4.581532000447741670e-01 -1.087755183359469591e+01 -4.634527150220620939e+01 3.404521175749673834e+00 -4.581532000447741670e-01 3.404521175749673834e+00 -5.378061107395915030e+01
-3.636850021717797432e+01 2.252987225799464088e+00 -3.883699634158466640e+00 2.252987225799464088e+00 -2.940717376834721364e+01 -5.290747290090605404e+00 -3.883699634158466640e+00 -5.290747290090605404e+00 -3.219186072664552967e+01
-3.753814290220207539e+01 1.268551608070414671e+00 5.528789313158833929e-01 1.268551608070414671e+00 -3.538341315153376598e+01 1.194577085050216780e+01 5.528789313158833929e-01 1.194577085050216780e+01 -4.275096943866491017e+01
-4.209657008518017562e+01 -5.381538034651074831e+00 3.122319903791643370e+00 -5.381538034651074831e+00 -3.427219836248562501e+01 4.336713697348010044e+00 3.122319903791643370e+00 4.336713697348010044e+00 -4.870910827897608186e+01
-1.705246103338086527e+01 -3.519149849678544939e+00 8.532060831749136653e+00 -3.519149849678544939e+00 -2.718207847829498292e+01 -2.187645354893564542e-01 8.532060831749136653e+00 -2.187645354893564542e-01 -2.462839265658873344e+01
-5.367633098430631122e+01 -3.460555331924415334e+00 -5.732559105448959080e+00 -3.460555331924415334e+00 -4.401378662621193172e+01 -5.568325397124632703e-01 -5.732559105448959080e+00 -5.568325397124632703e-01 -5.478192706229576459e+01
-4.318915399755130125e+01 -3.674236899348457541e-01 -5.654742742333423777e+00 -3.674236899348457541e-01 -4.546207721570726079e+01 6.164693145181368905e+00 -5.654742742333423777e+00 6.164693145181368905e+00 -3.405859097128456625e+01
2.203270108678190287e+00 -7.782508185380269339e+00 -7.095969101977416038e+00 -7.782508185380269339e+00 -2.666156158555983424e+01 3.177150987371409885e-01 -7.095969101977416038e+00 3.177150987371409885e-01 -3.401949010703867771e+01
-2.318702138487917708e+01 4.449808862106943153e+00 -1.164051488192108685e+01 4.449808862106943153e+00 -3.006027036712162470e+01 -2.174625514986487484e+00 -1.164051488192108685e+01 -2.174625514986487484e+00 -2.796563007353551811e+01
-4.488498270554214287e+01 2.617824981544456975e+00 6.226431760152522976e+00 2.617824981544456975e+00 -4.436867347261075878e+01 6.163631001352779748e+00 6.226431760152522976e+00 6.163631001352779748e+00 -5.373152767221329640e+01
-3.228765592148885588e+01 3.413619560384294260e+00 -3.857180045279580582e+00 3.413619560384294260e+00 -4.942233996149936104e+01 -5.032148195361121346e+00 -3.857180045279580582e+00 -5.032148195361121346e+00 -3.097429505628978319e+01
-5.465870642503988108e+01 3.066346452663772038e+00 -2.371041857169191136e+00 3.066346452663772038e+00 -5.331321566439615367e+01 -8.851232633211445489e+00 -2.371041857169191136e+00 -8.851232633211445489e+00 -2.951451425942584450e+01
-3.896815829813597531e+01 -3.760977979093673151e-01 1.180259909740568780e+01 -3.760977979093673151e-01 -3.188336603010509052e+01 9.860612345113603183e+00 1.180259909740568780e+01 9.860612345113603183e+00 -3.531743176638172343e+01
-3.371782066837715064e+01 3.562681541229108184e+00 -3.599420537765375627e+00 3.562681541229108184e+00 -3.550297389775975887e+01 -1.084438529553603425e+00 -3.599420537765375627e+00 -1.084438529553603425e+00 -4.163802596608353213e+01
-5.278885275409651001e+01 -2.661600330288519167e+00 -7.136662285288561058e+00 -2.661600330288519167e+00 -5.229555866341257087e+01 -4.427124875659266934e+00 -7.136662285288561058e+00 -4.427124875659266934e+00 -4.436052432536489221e+01
-3.511956368185389010e+01 -1.783034950945374231e+00 -1.409490900853481854e+01 -1.783034950945374231e+00 -8.447228056884869218e+00 -2.527965804677598793e+00 -1.409490900853481854e+01 -2.527965804677598793e+00 -2.302671155626228128e+01
-1.828730926871568840e+01 -4.455840367209200181e+00 3.483531696953778845e+00 -4.455840367209200181e+00 -2.446516613954026198e+01 -1.519527118738910687e+01 3.483531696953778845e+00 -1.519527118738910687e+01 -1.639338314186479195e+01
-3.686250492975343462e+01 -6.772832681900998075e+00 7.849026447252825278e+00 -6.772832681900998075e+00 -1.806267545327608559e+01 -3.161881870939310613e+00 7.849026447252825278e+00 -3.161881870939310613e+00 -3.199590841688567266e+01
-2.640612843871467774e+01 -2.094924169883747300e+00 7.066574531784597824e+00 -2.094924169883747300e+00 -6.882785937248265817e+00 1.352678222013009446e+01 7.066574531784597824e+00 1.352678222013009446e+01 -1.632663559320140223e+01
-3.119671627715365148e+01 6.576138679428272127e+00 2.363784902393349707e+00 6.576138679428272127e+00 -4.597320965203002174e+01 2.352529093630505219e+00 2.363784902393349707e+00 2.352529093630505219e+00 -3.808841546580781312e+01
-2.983258108062770830e+01 -1.239252281316575388e+00 7.441435966891976617e-02 -1.239252281316575388e+00 -5.141850021441829455e+00 -9.574760116142698507e+00 7.441435966891976617e-02 -9.574760116142698507e+00 -4.560377103036778124e+01
-2.694478537094552451e+01 2.228195341434978438e+00 2.879729282827753867e+00 2.228195341434978438e+00 -6.970480497011796395e+00 3.016549618917439890e+00 2.879729282827753867e+00 3.016549618917439890e+00 -4.289895690332645728e+01
-3.036714520353930880e+01 -2.131405274861945642e+01 -4.188082367793461103e+00 -2.131405274861945642e+01 -2.617038299461068718e+01 -1.406308257831758945e+00 -4.188082367793461103e+00 -1.406308257831758945e+00 -3.401646677262525031e+01
-2.380022109216175252e+01 5.390367474733245068e+00 -9.862060190653956782e-02 5.390367474733245068e+00 -2.640219032153138201e+01 1.410530499893452916e+00 -9.862060190653956782e-02 1.410530499893452916e+00 -6.486302669063773507e+00
-3.098991582499811770e+01 -1.099960974045244011e-01 1.394096895752794651e+01 -1.099960974045244011e-01 -2.980717412565220314e+01 6.093379640646516826e+00 1.394096895752794651e+01 6.093379640646516826e+00 -2.024495995532511472e+01
-5.260561482258344057e+01 4.454606596978236688e+00 7.763225395203463997e+00 4.454606596978236688e+00 -4.783415473076081526e+01 8.039651887784065920e+00 7.763225395203463997e+00 8.039651887784065920e+00 -5.761445102343000002e+01
-2.148816739408190557e+01 -5.460784921268967196e+00 -2.905175341356692087e+00 -5.460784921268967196e+00 -3.790107405078430247e+01 -6.630346302515514267e+00 -2.905175341356692087e+00 -6.630346302515514267e+00 -4.995060894929750361e+01
-5.643588107742704807e+01 -1.886968679243085756e+00 -3.278182556813702853e+00 -1.886968679243085756e+00 -4.205839251440964688e+01 -6.863332371435476809e+00 -3.278182556813702853e+00 -6.863332371435476809e+00 -3.665879057941600649e+01
-3.872842076497413188e+01 1.927636094475631667e+00 3.601787271423358749e+00 1.927636094475631667e+00 -4.574771827462717155e+00 -1.870397229966435981e+00 3.601787271423358749e+00 -1.870397229966435981e+00 -3.106093197366538661e+01
-4.473658711752695893e+01 -5.751450316873465418e-01 -4.527659562569221308e+00 -5.751450316873465418e-01 -4.558538289099255536e+01 -2.559152203853636287e+00 -4.527659562569221308e+00 -2.559152203853636287e+00 -3.898019515632052645e+01
-2.165632764092752893e+01 7.549658745378136082e+00 -5.757027037751856480e-02 7.549658745378136082e+00 -2.116012677846186563e+01 3.586399444532911929e+00 -5.757027037751856480e-02 3.586399444532911929e+00 -4.256579139673615941e+01
-4.666360947398037418e+00 -1.521199072490523818e+01 4.542734683471536528e+00 -1.521199072490523818e+01 -7.183204842529168133e+00 8.839078496290836640e+00 4.542734683471536528e+00 8.839078496290836640e+00 -1.072722610237825691e+01
-2.354600807752056113e+01 -7.076097586936685779e+00 3.694941604999515405e-01 -7.076097586936685779e+00 -9.994082053248780184e+00 -5.673965345491091661e+00 3.694941604999515405e-01 -5.673965345491091661e+00 -3.204200804610533737e+01
-5.618411020260749211e+01 -3.566946001166894642e-01 -1.339365711396971914e+00 -3.566946001166894642e-01 -1.263761926803163682e+01 1.438188830469079171e+01 -1.339365711396971914e+00 1.438188830469079171e+01 -3.526048979222044011e+01
-5.955170619621857497e+01 -1.178021039451446983e+00 3.351662679970753178e+00 -1.178021039451446983e+00 -5.099049616971220900e+01 -1.758567649507107589e-01 3.351662679970753178e+00 -1.758567649507107589e-01 -6.399313636676929207e+01
-3.447414934807414255e+01 4.412417992000509770e+00 -2.834553796758866540e+00 4.412417992000509770e+00 -1.482651963206068046e+01 -9.892118198090340542e+00 -2.834553796758866540e+00 -9.892118198090340542e+00 -2.350592753176966454e+01
-4.958350509252183258e+01 -6.968408205407492950e+00 8.645687888478843064e+00 -6.968408205407492950e+00 -4.110625784469193889e+01 -8.406119209500335643e+00 8.645687888478843064e+00 -8.406119209500335643e+00 -6.059443133135100368e+01
-4.941115583895592067e+01 4.747918978529731326e+00 -1.661104074547834930e+00 4.747918978529731326e+00 -4.398022071911920960e+01 -4.044294553807735504e+00 -1.661104074547834930e+00 -4.044294553807735504e+00 -4.618477847313299378e+01
-3.789825234315944158e+01 1.156216383335659792e+01 -7.431021821585052756e+00 1.156216383335659792e+01 -2.224573882939441205e+01 5.280708929293582266e+00 -7.431021821585052756e+00 5.280708929293582266e+00 -9.829010896368661321e+00
-5.116239770004018794e+01 2.796153643192124783e+00 6.050841114494790673e+00 2.796153643192124783e+00 -2.297124791425646961e+01 -9.828522566119170634e+00 6.050841114494790673e+00 -9.828522566119170634e+00 -1.084085687995788838e+01
-2.190839765782685689e+01 1.034648695697155674e+01 4.016958195199640813e-01 1.034648695697155674e+01 -3.955161527795750231e+01 -6.596460945071848769e+00 4.016958195199640813e-01 -6.596460945071848769e+00 -4.118863479354727275e+01
-4.111293642691748573e+01 -4.133198585765131661e+00 -6.327762808633928593e+00 -4.133198585765131661e+00 -5.335839878861113306e+01 1.563036212476172304e+00 -6.327762808633928593e+00 1.563036212476172304e+00 -1.317921433463411063e+01
-6.475935385342201300e+01 5.088089456776689445e+00 1.555060337583526131e+00 5.088089456776689445e+00 -6.250237637084920550e+01 8.219076303667198491e-02 1.555060337583526131e+00 8.219076303667198491e-02 -6.129619007814469001e+01
-3.666811753839613175e+01 -8.008192468491783345e+00 -2.784652056240104478e+00 -8.008192468491783345e+00 -2.491411528635407535e+01 6.832175903158892893e+00 -2.784652056240104478e+00 6.832175903158892893e+00 -2.904780818001093934e+01
-4.023593152693594277e+01 -2.819356430136038316e+00 -1.161202519110184905e+00 -2.819356430136038316e+00 -3.589855854581325190e+01 8.689219176447471327e+00 -1.161202519110184905e+00 8.689219176447471327e+00 -4.321519771303292146e+01
-5.373308548437643850e+01 2.676148585750627307e-01 -9.362956792999515443e+00 2.676148585750627307e-01 -5.019801122905178659e+01 -5.189435747280258582e+00 -9.362956792999515443e+00 -5.189435747280258582e+00 -5.054179225108537565e+01
-2.818965145792168414e+01 -4.184189178120843039e-02 -1.428927115985648477e+00 -4.184189178120843039e-02 -3.401254294316051840e+01 1.194718962199638312e+01 -1.428927115985648477e+00 1.194718962199638312e+01 -2.728393213418408791e+01
-2.821071916581000849e+01 -1.303209779308429006e+01 -6.551122713579652590e+00 -1.303209779308429006e+01 -3.298206176890115415e+01 3.621474863443606029e+00 -6.551122713579652590e+00 3.621474863443606029e+00 -3.306405405715862145e+01
-2.678386590733380856e+01 1.660288383182128236e+00 -2.174035338839865439e+00 1.660288383182128236e+00 -3.386311469801567853e+01 -8.704476637341322487e+00 -2.174035338839865439e+00 -8.704476637341322487e+00 -3.045461652371146499e+01
-5.129309953561031676e+01 -2.374013062791190176e+00 -2.471274139246337764e+00 -2.374013062791190176e+00 -3.940778317852173984e+01 -2.695044832008323343e+00 -2.471274139246337764e+00 -2.695044832008323343e+00 -4.718840019306539801e+01
-3.797306586631191294e+01 6.752549674494955134e+00 4.546779089581475475e+00 6.752549674494955134e+00 -2.938070117899698630e+01 -6.555121891505205634e-01 4.546779089581475475e+00 -6.555121891505205634e-01 -3.993556821716364880e+01
-2.667552544301665662e+01 3.972178141454815847e+00 -6.213170352057388435e+00 3.972178141454815847e+00 -3.032872659475536281e+01 6.523481443061602825e+00 -6.213170352057388435e+00 6.523481443061602825e+00 -3.586283651436146158e+01
-5.490581903571543876e+01 -4.533130763568639310e+00 -1.711968856196683042e+00 -4.533130763568639310e+00 -4.886197999323802321e+01 2.121110989665276128e-02 -1.711968856196683042e+00 2.121110989665276128e-02 -4.972849711699841180e+01
-3.203066076336664736e+01 -7.250087951487886428e+00 4.329720398406802673e+00 -7.250087951487886428e+00 -2.981666497242088454e+01 4.427284287282802211e+00 4.329720398406802673e+00 4.427284287282802211e+00 -3.340661374823445584e+01
-2.067147188544432268e+01 1.832024267050561050e+01 -7.807492706162639351e+00 1.832024267050561050e+01 -2.737894938549303703e+01 -6.571480736767924213e+00 -7.807492706162639351e+00 -6.571480736767924213e+00 -1.592025970994330031e+01
-3.556845078462868059e+01 -1.994962279316043308e+00 7.008454816742749394e+00 -1.994962279316043308e+00 -3.168949717728923687e+01 2.598338433355638966e+00 7.008454816742749394e+00 2.598338433355638966e+00 -3.599399863824996260e+01
-2.140739950069578157e+01 -5.947582741180119648e+00 7.460827747085154726e+00 -5.947582741180119648e+00 -3.302741522270012098e+01 3.080108882453613361e+00 7.460827747085154726e+00 3.080108882453613361e+00 -5.033121377740916280e+00
-4.256475861664994653e+01 -3.384684747555379847e+00 -1.842047414273365380e+00 -3.384684747555379847e+00 -5.487230292375222973e+01 -9.712715251934276317e-01 -1.842047414273365380e+00 -9.712715251934276317e-01 -5.104962903793398965e+01
-4.173268472009999641e+01 5.192109696217973358e+00 -7.439862245055928192e+00 5.192109696217973358e+00 -4.836587680528868560e+01 6.210047527248096166e+00 -7.439862245055928192e+00 6.210047527248096166e+00 -4.026725644014511118e+01
-2.849239362714890333e+01 -8.999858265396616375e+00 3.872758087156788154e+00 -8.999858265396616375e+00 -2.000130108210397850e+01 3.565485708339382498e+00 3.872758087156788154e+00 3.565485708339382498e+00 -2.574281052967916139e+01
-3.635566085348737886e+01 9.276531319586117874e+00 -1.745652344300688386e+00 9.276531319586117874e+00 -2.758992721119615510e+01 1.274804349212412813e+00 -1.745652344300688386e+00 1.274804349212412813e+00 -9.490819787429854770e+00
-4.244993345978146237e+01 -4.901360977358597992e+00 -4.338010286080913325e-01 -4.901360977358597992e+00 -3.616210990865820918e+01 -4.475980518671921260e+00 -4.338010286080913325e-01 -4.475980518671921260e+00 -4.342885919579834564e+01
-4.648326114406012266e+01 3.991014459632385325e+00 -2.466930359285920638e+00 3.991014459632385325e+00 -4.137742317010962978e+01 -1.191954986143336725e+01 -2.466930359285920638e+00 -1.191954986143336725e+01 -5.242593630629331614e+01
-4.673536455836948278e+01 5.796951464516128638e+00 1.876504502977197175e+00 5.796951464516128638e+00 -5.376273716613614795e+01 -4.991664859242003871e+00 1.876504502977197175e+00 -4.991664859242003871e+00 -4.770954399890064934e+01
-3.173845079292721749e+01 2.257856313257537162e-01 1.766941813200925582e+00 2.257856313257537162e-01 -2.864376721725873765e+01 2.111146984411448990e+00 1.766941813200925582e+00 2.111146984411448990e+00 -2.727376455016715440e+01
-5.358334417648663361e+01 3.860454832514046863e+00 -1.421591016534429874e+00 3.860454832514046863e+00 -4.195519659840972082e+01 1.417738092097823177e+01 -1.421591016534429874e+00 1.417738092097823177e+01 -2.102667456936480406e+01
-4.366813243554040014e+01 -3.198339994147842980e+00 1.592200249979194915e+01 -3.198339994147842980e+00 -3.185631351697023561e+01 2.728103945010175835e+00 1.592200249979194915e+01 2.728103945010175835e+00 -2.744807187599075959e+01
-4.349331474058551805e+01 3.002780192369261414e+00 -1.544204928867939808e+00 3.002780192369261414e+00 -3.610203807198607961e+01 -5.240182518147457280e+00 -1.544204928867939808e+00 -5.240182518147457280e+00 -3.175281772212441211e+01
-4.050794358871848289e+01 5.319041530018778774e-01 3.273117454395399140e+00 5.319041530018778774e-01 -4.513942707277472977e+01 1.408721131705646279e+00 3.273117454395399140e+00 1.408721131705646279e+00 -4.954102657981787416e+01
-5.333172230668768066e+01 4.083663954847783550e+00 -7.592961189958308488e+00 4.083663954847783550e+00 -6.211829728017655583e+01 2.048679151667511800e+00 -7.592961189958308488e+00 2.048679151667511800e+00 -4.277118216043517407e+01
-5.612690126860994866e+01 1.283057385657055782e+01 -4.157809601742036065e+00 1.283057385657055782e+01 -4.638054220246816328e+01 5.982104379086961021e-01 -4.157809601742036065e+00 5.982104379086961021e-01 -5.051964375233828264e+01
-4.495947767995393463e+01 5.265984475089548589e+00 4.262782794845582757e+00 5.265984475089548589e+00 -5.080692017998564580e+01 2.196062918742822223e+00 4.262782794845582757e+00 2.196062918742822223e+00 -3.636277443830783795e+01
-2.791536014360092821e+01 1.402294424724135524e+01 -2.616860929118288492e+00 1.402294424724135524e+01 -2.543301984204440203e+01 3.525143013359925082e+00 -2.616860929118288492e+00 3.525143013359925082e+00 -2.940347414537482962e+01
-1.807928951212558388e+01 7.620125445059264813e-01 -3.216053357449918160e+00 7.620125445059264813e-01 -4.796944066761295034e+01 -4.912637914113562765e+00 -3.216053357449918160e+00 -4.912637914113562765e+00 -4.203774495806563039e+01
-2.456652927988507784e+01 6.555709660447115006e+00 -2.565886649199856429e+00 6.555709660447115006e+00 -3.887853888190533524e+01 -4.067143065936894009e-01 -2.565886649199856429e+00 -4.067143065936894009e-01 -4.148110023166258742e+01
-5.809945462415805650e+01 -7.248456055321486069e+00 -3.078782236454383536e+00 -7.248456055321486069e+00 -4.035329224050806118e+01 -1.755146974209659705e+00 -3.078782236454383536e+00 -1.755146974209659705e+00 -4.856654048151535363e+01
-3.170719390963059325e+01 -6.075824647724771488e+00 -5.035242965667486637e+00 -6.075824647724771488e+00 -4.601293325942761214e+01 4.294015709184209051e+00 -5.035242965667486637e+00 4.294015709184209051e+00 -1.239069701120518197e+01
-5.076154079614578052e+01 7.936800177837309178e+00 4.031387967997523525e+00 7.936800177837309178e+00 -4.563421121208181575e+01 4.669819357092257484e+00 4.031387967997523525e+00 4.669819357092257484e+00 -5.425051836407618566e+01
-4.158696593575866984e+01 8.605057063157937947e+00 6.185892839712645142e+00 8.605057063157937947e+00 -2.047998296459943290e+01 -9.611858533426742568e+00 6.185892839712645142e+00 -9.611858533426742568e+00 -3.344585079012031770e+01
-3.895152389385260960e+01 -4.832356015494649881e+00 1.174802732115513892e+00 -4.832356015494649881e+00 -5.638429072499021544e+01 1.566798843152360288e+00 1.174802732115513892e+00 1.566798843152360288e+00 -5.770282751930771781e+01
-4.295250080755441502e+01 6.992185101581407380e+00 -4.533107876043852014e-01 6.992185101581407380e+00 -4.816074895377474974e+01 4.819311452332523338e+00 -4.533107876043852014e-01 4.819311452332523338e+00 -4.355071710458588541e+01
-4.262223955662809516e+01 8.539032179209650408e+00 3.613237141160119847e+00 8.539032179209650408e+00 -3.857710168225121805e+01 -1.628274526803812794e+00 3.613237141160119847e+00 -1.628274526803812794e+00 -3.974272295372954034e+01
-4.187807075293265058e+01 -3.804646568273706286e+00 -8.986686537771115368e+00 -3.804646568273706286e+00 -5.909198639194727321e+01 7.118497055493263614e-01 -8.986686537771115368e+00 7.118497055493263614e-01 -4.722022227608204048e+01
-3.193182962210943643e+01 -1.539054499056098591e+00 -2.230666609901826636e+00 -1.539054499056098591e+00 -3.467335124510572086e+01 8.307212322109741587e-01 -2.230666609901826636e+00 8.307212322109741587e-01 -3.445886419319060678e+01
-5.065448731851616770e+01 -1.837827739521485038e+00 -5.493513501784920372e+00 -1.837827739521485038e+00 -3.693053013834265386e+01 -4.216837325079897170e+00 -5.493513501784920372e+00 -4.216837325079897170e+00 -4.647235658628562760e+01
-4.493207083683835634e+01 -1.197395706051359365e+00 1.066341786820440163e+01 -1.197395706051359365e+00 -4.272117264282123017e+01 -9.633461694778409523e+00 1.066341786820440163e+01 -9.633461694778409523e+00 -2.766124417272223113e+01
-6.580941908766486392e+01 -7.196854962481589180e-01 3.642572067830490035e+00 -7.196854962481589180e-01 -6.223607477792555187e+01 -6.791179864474663930e+00 3.642572067830490035e+00 -6.791179864474663930e+00 -5.512023059882929488e+01
-2.102292804128964576e+01 1.267752101064626480e+01 5.804839765980140065e+00 1.267752101064626480e+01 -2.142960275661189229e+01 -1.228586353977818346e+00 5.804839765980140065e+00 -1.228586353977818346e+00 -2.053623087620421117e+01
-3.215293902253007019e+01 1.720780959091549933e+00 5.313159538115646008e+00 1.720780959091549933e+00 -2.793105892804264201e+01 1.881998616130507562e+00 5.313159538115646008e+00 1.881998616130507562e+00 -2.299296325177056843e+01
-3.630857972442596093e+01 -1.831231955348196383e+00 -1.388511320770028057e+01 -1.831231955348196383e+00 -4.487435159858795686e+01 -4.596893291598016518e+00 -1.388511320770028057e+01 -4.596893291598016518e+00 -4.328417272865540610e+01
-1.870587569040493037e+01 6.458211901565539925e+00 -4.232254321259983243e+00 6.458211901565539925e+00 -2.475556028035218858e+01 7.653741967720166350e+00 -4.232254321259983243e+00 7.653741967720166350e+00 -2.551707060509507841e+01
-5.090010699133254946e+01 -9.403138782844036037e-01 -5.310951722842907508e+00 -9.403138782844036037e-01 -4.200825501126244177e+01 1.771719550007364030e-01 -5.310951722842907508e+00 1.771719550007364030e-01 -4.432901016951482376e+01
-3.895982253846830190e+01 -5.749639184918537538e+00 1.653353986069908244e+00 -5.749639184918537538e+00 -3.012763050882112026e+01 7.338881469184754813e+00 1.653353986069908244e+00 7.338881469184754813e+00 -3.543117402124515536e+01
-3.067839841990619831e+01 -6.903977622636795708e+00 6.688613016553924817e-01 -6.903977622636795708e+00 -3.444192086235526773e+01 -5.442173773261257175e+00 6.688613016553924817e-01 -5.442173773261257175e+00 -2.485424537277366142e+01
-8.530038022746049720e+00 1.872522563476361590e+00 3.162994844536152783e+01 1.872522563476361590e+00 -4.839214694022722085e+01 -1.345165305874775896e+01 3.162994844536152783e+01 -1.345165305874775896e+01 -1.575412735534942321e+01
-3.302085191911697848e+01 4.594262539492686592e+00 6.920934213203161711e+00 4.594262539492686592e+00 -2.441687006849579333e+01 4.063525054398775538e+00 6.920934213203161711e+00 4.063525054398775538e+00 -2.821105396573176449e+01
-1.933986493609654644e+01 -9.483552817397343793e-01 -1.140529089060528634e+01 -9.483552817397343793e-01 8.800163939631422849e+00 2.756690563360655766e+00 -1.140529089060528634e+01 2.756690563360655766e+00 3.372563089489650334e+00
-3.908176026583652174e+01 8.788766835332254557e-01 4.260018162779784845e+00 8.788766835332254557e-01 -4.275340710202356576e+01 -3.931082510867201396e+00 4.260018162779784845e+00 -3.931082510867201396e+00 -4.459211828985443304e+01
-4.498154421554708193e+01 1.513784996139056993e+01 -8.444093015731608531e+00 1.513784996139056993e+01 -4.047619251908601967e+01 -3.075004737761269258e+00 -8.444093015731608531e+00 -3.075004737761269258e+00 -4.630819026558780394e+01
-6.354144452763815565e+01 3.341579858077652787e+00 -3.724258625470310946e+00 3.341579858077652787e+00 -4.282849848631300205e+01 -6.967491216419000599e-01 -3.724258625470310946e+00 -6.967491216419000599e-01 -4.090357468998076484e+01
-1.803693938520078532e+01 -1.020354480580683187e+01 -1.585147472251410505e+01 -1.020354480580683187e+01 -8.057597783134903935e+00 -3.809035333673895700e-04 -1.585147472251410505e+01 -3.809035333673895700e-04 -3.092821426410110774e+01
-3.882946167958673556e+01 -1.477165427947233711e+00 7.384044402015210729e-01 -1.477165427947233711e+00 -4.373365848904906983e+01 -3.724412607086849292e+00 7.384044402015210729e-01 -3.724412607086849292e+00 -6.001088152893931493e+01
-4.346135415300155813e+01 5.590876458000799687e+00 1.974028730335277482e+00 5.590876458000799687e+00 -2.804133043622405808e+01 -3.654306077192207708e-02 1.974028730335277482e+00 -3.654306077192207708e-02 -3.958835051071451261e+01
-2.847994558706657386e+01 -1.220226744695855681e+00 -3.188413199391670450e+00 -1.220226744695855681e+00 -4.515319114910710852e+01 -1.675095292111940637e+00 -3.188413199391670450e+00 -1.675095292111940637e+00 -2.701128934249356206e+01
-4.708308837538065461e+01 2.863654729973585056e+00 -5.814715869563708672e+00 2.863654729973585056e+00 -3.983735476426996769e+01 5.163890796390244731e-01 -5.814715869563708672e+00 5.163890796390244731e-01 -3.418007242094962805e+01
-3.649452550148744479e+01 8.362648225072049968e+00 8.581789827533533810e+00 8.362648225072049968e+00 -2.704194646429286308e+01 -7.091904038972040025e-01 8.581789827533533810e+00 -7.091904038972040025e-01 -4.066606032890535261e+01
-5.864625757510540893e+01 2.084806526938107196e-01 1.291846051840140319e+01 2.084806526938107196e-01 -3.567528690757963261e+01 3.194899377863414713e+00 1.291846051840140319e+01 3.194899377863414713e+00 -2.432421322150375786e+01
-4.429706805501272271e+01 5.520675544584239702e+00 1.244451978857305185e+00 5.520675544584239702e+00 -3.200976988546529611e+01 1.147755309952939307e+01 1.244451978857305185e+00 1.147755309952939307e+01 -2.393493018788189985e+01
-3.310212855686545197e+01 -1.666938890488928404e+00 -6.126324403720635470e-01 -1.666938890488928404e+00 -3.791635803554585493e+01 3.160843905559493905e+00 -6.126324403720635470e-01 3.160843905559493905e+00 -1.722699416403330375e+01