rho12.5-121212.lmp (written by ASE) 

1728 	 atoms 
1  atom types
0.0      23.403943407935841  xlo xhi
0.0      23.403943407935841  ylo yhi
0.0      23.403943407935841  zlo zhi


Atoms 

     1   1                       0                       0                       0
     2   1                       0                       0      1.9503286173279868
     3   1                       0                       0      3.9006572346559736
     4   1                       0                       0      5.8509858519839604
     5   1                       0                       0      7.8013144693119472
     6   1                       0                       0       9.751643086639934
     7   1                       0                       0      11.701971703967919
     8   1                       0                       0      13.652300321295906
     9   1                       0                       0      15.602628938623894
    10   1                       0                       0      17.552957555951881
    11   1                       0                       0      19.503286173279868
    12   1                       0                       0      21.453614790607855
    13   1                       0      1.9503286173279868                       0
    14   1                       0      1.9503286173279868      1.9503286173279868
    15   1                       0      1.9503286173279868      3.9006572346559736
    16   1                       0      1.9503286173279868      5.8509858519839604
    17   1                       0      1.9503286173279868      7.8013144693119472
    18   1                       0      1.9503286173279868       9.751643086639934
    19   1                       0      1.9503286173279868      11.701971703967919
    20   1                       0      1.9503286173279868      13.652300321295906
    21   1                       0      1.9503286173279868      15.602628938623894
    22   1                       0      1.9503286173279868      17.552957555951881
    23   1                       0      1.9503286173279868      19.503286173279868
    24   1                       0      1.9503286173279868      21.453614790607855
    25   1                       0      3.9006572346559736                       0
    26   1                       0      3.9006572346559736      1.9503286173279868
    27   1                       0      3.9006572346559736      3.9006572346559736
    28   1                       0      3.9006572346559736      5.8509858519839604
    29   1                       0      3.9006572346559736      7.8013144693119472
    30   1                       0      3.9006572346559736       9.751643086639934
    31   1                       0      3.9006572346559736      11.701971703967919
    32   1                       0      3.9006572346559736      13.652300321295906
    33   1                       0      3.9006572346559736      15.602628938623894
    34   1                       0      3.9006572346559736      17.552957555951881
    35   1                       0      3.9006572346559736      19.503286173279868
    36   1                       0      3.9006572346559736      21.453614790607855
    37   1                       0      5.8509858519839604                       0
    38   1                       0      5.8509858519839604      1.9503286173279868
    39   1                       0      5.8509858519839604      3.9006572346559736
    40   1                       0      5.8509858519839604      5.8509858519839604
    41   1                       0      5.8509858519839604      7.8013144693119472
    42   1                       0      5.8509858519839604       9.751643086639934
    43   1                       0      5.8509858519839604      11.701971703967919
    44   1                       0      5.8509858519839604      13.652300321295906
    45   1                       0      5.8509858519839604      15.602628938623894
    46   1                       0      5.8509858519839604      17.552957555951881
    47   1                       0      5.8509858519839604      19.503286173279868
    48   1                       0      5.8509858519839604      21.453614790607855
    49   1                       0      7.8013144693119472                       0
    50   1                       0      7.8013144693119472      1.9503286173279868
    51   1                       0      7.8013144693119472      3.9006572346559736
    52   1                       0      7.8013144693119472      5.8509858519839604
    53   1                       0      7.8013144693119472      7.8013144693119472
    54   1                       0      7.8013144693119472       9.751643086639934
    55   1                       0      7.8013144693119472      11.701971703967919
    56   1                       0      7.8013144693119472      13.652300321295906
    57   1                       0      7.8013144693119472      15.602628938623894
    58   1                       0      7.8013144693119472      17.552957555951881
    59   1                       0      7.8013144693119472      19.503286173279868
    60   1                       0      7.8013144693119472      21.453614790607855
    61   1                       0       9.751643086639934                       0
    62   1                       0       9.751643086639934      1.9503286173279868
    63   1                       0       9.751643086639934      3.9006572346559736
    64   1                       0       9.751643086639934      5.8509858519839604
    65   1                       0       9.751643086639934      7.8013144693119472
    66   1                       0       9.751643086639934       9.751643086639934
    67   1                       0       9.751643086639934      11.701971703967919
    68   1                       0       9.751643086639934      13.652300321295906
    69   1                       0       9.751643086639934      15.602628938623894
    70   1                       0       9.751643086639934      17.552957555951881
    71   1                       0       9.751643086639934      19.503286173279868
    72   1                       0       9.751643086639934      21.453614790607855
    73   1                       0      11.701971703967919                       0
    74   1                       0      11.701971703967919      1.9503286173279868
    75   1                       0      11.701971703967919      3.9006572346559736
    76   1                       0      11.701971703967919      5.8509858519839604
    77   1                       0      11.701971703967919      7.8013144693119472
    78   1                       0      11.701971703967919       9.751643086639934
    79   1                       0      11.701971703967919      11.701971703967919
    80   1                       0      11.701971703967919      13.652300321295906
    81   1                       0      11.701971703967919      15.602628938623894
    82   1                       0      11.701971703967919      17.552957555951881
    83   1                       0      11.701971703967919      19.503286173279868
    84   1                       0      11.701971703967919      21.453614790607855
    85   1                       0      13.652300321295906                       0
    86   1                       0      13.652300321295906      1.9503286173279868
    87   1                       0      13.652300321295906      3.9006572346559736
    88   1                       0      13.652300321295906      5.8509858519839604
    89   1                       0      13.652300321295906      7.8013144693119472
    90   1                       0      13.652300321295906       9.751643086639934
    91   1                       0      13.652300321295906      11.701971703967919
    92   1                       0      13.652300321295906      13.652300321295906
    93   1                       0      13.652300321295906      15.602628938623894
    94   1                       0      13.652300321295906      17.552957555951881
    95   1                       0      13.652300321295906      19.503286173279868
    96   1                       0      13.652300321295906      21.453614790607855
    97   1                       0      15.602628938623894                       0
    98   1                       0      15.602628938623894      1.9503286173279868
    99   1                       0      15.602628938623894      3.9006572346559736
   100   1                       0      15.602628938623894      5.8509858519839604
   101   1                       0      15.602628938623894      7.8013144693119472
   102   1                       0      15.602628938623894       9.751643086639934
   103   1                       0      15.602628938623894      11.701971703967919
   104   1                       0      15.602628938623894      13.652300321295906
   105   1                       0      15.602628938623894      15.602628938623894
   106   1                       0      15.602628938623894      17.552957555951881
   107   1                       0      15.602628938623894      19.503286173279868
   108   1                       0      15.602628938623894      21.453614790607855
   109   1                       0      17.552957555951881                       0
   110   1                       0      17.552957555951881      1.9503286173279868
   111   1                       0      17.552957555951881      3.9006572346559736
   112   1                       0      17.552957555951881      5.8509858519839604
   113   1                       0      17.552957555951881      7.8013144693119472
   114   1                       0      17.552957555951881       9.751643086639934
   115   1                       0      17.552957555951881      11.701971703967919
   116   1                       0      17.552957555951881      13.652300321295906
   117   1                       0      17.552957555951881      15.602628938623894
   118   1                       0      17.552957555951881      17.552957555951881
   119   1                       0      17.552957555951881      19.503286173279868
   120   1                       0      17.552957555951881      21.453614790607855
   121   1                       0      19.503286173279868                       0
   122   1                       0      19.503286173279868      1.9503286173279868
   123   1                       0      19.503286173279868      3.9006572346559736
   124   1                       0      19.503286173279868      5.8509858519839604
   125   1                       0      19.503286173279868      7.8013144693119472
   126   1                       0      19.503286173279868       9.751643086639934
   127   1                       0      19.503286173279868      11.701971703967919
   128   1                       0      19.503286173279868      13.652300321295906
   129   1                       0      19.503286173279868      15.602628938623894
   130   1                       0      19.503286173279868      17.552957555951881
   131   1                       0      19.503286173279868      19.503286173279868
   132   1                       0      19.503286173279868      21.453614790607855
   133   1                       0      21.453614790607855                       0
   134   1                       0      21.453614790607855      1.9503286173279868
   135   1                       0      21.453614790607855      3.9006572346559736
   136   1                       0      21.453614790607855      5.8509858519839604
   137   1                       0      21.453614790607855      7.8013144693119472
   138   1                       0      21.453614790607855       9.751643086639934
   139   1                       0      21.453614790607855      11.701971703967919
   140   1                       0      21.453614790607855      13.652300321295906
   141   1                       0      21.453614790607855      15.602628938623894
   142   1                       0      21.453614790607855      17.552957555951881
   143   1                       0      21.453614790607855      19.503286173279868
   144   1                       0      21.453614790607855      21.453614790607855
   145   1      1.9503286173279868                       0                       0
   146   1      1.9503286173279868                       0      1.9503286173279868
   147   1      1.9503286173279868                       0      3.9006572346559736
   148   1      1.9503286173279868                       0      5.8509858519839604
   149   1      1.9503286173279868                       0      7.8013144693119472
   150   1      1.9503286173279868                       0       9.751643086639934
   151   1      1.9503286173279868                       0      11.701971703967919
   152   1      1.9503286173279868                       0      13.652300321295906
   153   1      1.9503286173279868                       0      15.602628938623894
   154   1      1.9503286173279868                       0      17.552957555951881
   155   1      1.9503286173279868                       0      19.503286173279868
   156   1      1.9503286173279868                       0      21.453614790607855
   157   1      1.9503286173279868      1.9503286173279868                       0
   158   1      1.9503286173279868      1.9503286173279868      1.9503286173279868
   159   1      1.9503286173279868      1.9503286173279868      3.9006572346559736
   160   1      1.9503286173279868      1.9503286173279868      5.8509858519839604
   161   1      1.9503286173279868      1.9503286173279868      7.8013144693119472
   162   1      1.9503286173279868      1.9503286173279868       9.751643086639934
   163   1      1.9503286173279868      1.9503286173279868      11.701971703967919
   164   1      1.9503286173279868      1.9503286173279868      13.652300321295906
   165   1      1.9503286173279868      1.9503286173279868      15.602628938623894
   166   1      1.9503286173279868      1.9503286173279868      17.552957555951881
   167   1      1.9503286173279868      1.9503286173279868      19.503286173279868
   168   1      1.9503286173279868      1.9503286173279868      21.453614790607855
   169   1      1.9503286173279868      3.9006572346559736                       0
   170   1      1.9503286173279868      3.9006572346559736      1.9503286173279868
   171   1      1.9503286173279868      3.9006572346559736      3.9006572346559736
   172   1      1.9503286173279868      3.9006572346559736      5.8509858519839604
   173   1      1.9503286173279868      3.9006572346559736      7.8013144693119472
   174   1      1.9503286173279868      3.9006572346559736       9.751643086639934
   175   1      1.9503286173279868      3.9006572346559736      11.701971703967919
   176   1      1.9503286173279868      3.9006572346559736      13.652300321295906
   177   1      1.9503286173279868      3.9006572346559736      15.602628938623894
   178   1      1.9503286173279868      3.9006572346559736      17.552957555951881
   179   1      1.9503286173279868      3.9006572346559736      19.503286173279868
   180   1      1.9503286173279868      3.9006572346559736      21.453614790607855
   181   1      1.9503286173279868      5.8509858519839604                       0
   182   1      1.9503286173279868      5.8509858519839604      1.9503286173279868
   183   1      1.9503286173279868      5.8509858519839604      3.9006572346559736
   184   1      1.9503286173279868      5.8509858519839604      5.8509858519839604
   185   1      1.9503286173279868      5.8509858519839604      7.8013144693119472
   186   1      1.9503286173279868      5.8509858519839604       9.751643086639934
   187   1      1.9503286173279868      5.8509858519839604      11.701971703967919
   188   1      1.9503286173279868      5.8509858519839604      13.652300321295906
   189   1      1.9503286173279868      5.8509858519839604      15.602628938623894
   190   1      1.9503286173279868      5.8509858519839604      17.552957555951881
   191   1      1.9503286173279868      5.8509858519839604      19.503286173279868
   192   1      1.9503286173279868      5.8509858519839604      21.453614790607855
   193   1      1.9503286173279868      7.8013144693119472                       0
   194   1      1.9503286173279868      7.8013144693119472      1.9503286173279868
   195   1      1.9503286173279868      7.8013144693119472      3.9006572346559736
   196   1      1.9503286173279868      7.8013144693119472      5.8509858519839604
   197   1      1.9503286173279868      7.8013144693119472      7.8013144693119472
   198   1      1.9503286173279868      7.8013144693119472       9.751643086639934
   199   1      1.9503286173279868      7.8013144693119472      11.701971703967919
   200   1      1.9503286173279868      7.8013144693119472      13.652300321295906
   201   1      1.9503286173279868      7.8013144693119472      15.602628938623894
   202   1      1.9503286173279868      7.8013144693119472      17.552957555951881
   203   1      1.9503286173279868      7.8013144693119472      19.503286173279868
   204   1      1.9503286173279868      7.8013144693119472      21.453614790607855
   205   1      1.9503286173279868       9.751643086639934                       0
   206   1      1.9503286173279868       9.751643086639934      1.9503286173279868
   207   1      1.9503286173279868       9.751643086639934      3.9006572346559736
   208   1      1.9503286173279868       9.751643086639934      5.8509858519839604
   209   1      1.9503286173279868       9.751643086639934      7.8013144693119472
   210   1      1.9503286173279868       9.751643086639934       9.751643086639934
   211   1      1.9503286173279868       9.751643086639934      11.701971703967919
   212   1      1.9503286173279868       9.751643086639934      13.652300321295906
   213   1      1.9503286173279868       9.751643086639934      15.602628938623894
   214   1      1.9503286173279868       9.751643086639934      17.552957555951881
   215   1      1.9503286173279868       9.751643086639934      19.503286173279868
   216   1      1.9503286173279868       9.751643086639934      21.453614790607855
   217   1      1.9503286173279868      11.701971703967919                       0
   218   1      1.9503286173279868      11.701971703967919      1.9503286173279868
   219   1      1.9503286173279868      11.701971703967919      3.9006572346559736
   220   1      1.9503286173279868      11.701971703967919      5.8509858519839604
   221   1      1.9503286173279868      11.701971703967919      7.8013144693119472
   222   1      1.9503286173279868      11.701971703967919       9.751643086639934
   223   1      1.9503286173279868      11.701971703967919      11.701971703967919
   224   1      1.9503286173279868      11.701971703967919      13.652300321295906
   225   1      1.9503286173279868      11.701971703967919      15.602628938623894
   226   1      1.9503286173279868      11.701971703967919      17.552957555951881
   227   1      1.9503286173279868      11.701971703967919      19.503286173279868
   228   1      1.9503286173279868      11.701971703967919      21.453614790607855
   229   1      1.9503286173279868      13.652300321295906                       0
   230   1      1.9503286173279868      13.652300321295906      1.9503286173279868
   231   1      1.9503286173279868      13.652300321295906      3.9006572346559736
   232   1      1.9503286173279868      13.652300321295906      5.8509858519839604
   233   1      1.9503286173279868      13.652300321295906      7.8013144693119472
   234   1      1.9503286173279868      13.652300321295906       9.751643086639934
   235   1      1.9503286173279868      13.652300321295906      11.701971703967919
   236   1      1.9503286173279868      13.652300321295906      13.652300321295906
   237   1      1.9503286173279868      13.652300321295906      15.602628938623894
   238   1      1.9503286173279868      13.652300321295906      17.552957555951881
   239   1      1.9503286173279868      13.652300321295906      19.503286173279868
   240   1      1.9503286173279868      13.652300321295906      21.453614790607855
   241   1      1.9503286173279868      15.602628938623894                       0
   242   1      1.9503286173279868      15.602628938623894      1.9503286173279868
   243   1      1.9503286173279868      15.602628938623894      3.9006572346559736
   244   1      1.9503286173279868      15.602628938623894      5.8509858519839604
   245   1      1.9503286173279868      15.602628938623894      7.8013144693119472
   246   1      1.9503286173279868      15.602628938623894       9.751643086639934
   247   1      1.9503286173279868      15.602628938623894      11.701971703967919
   248   1      1.9503286173279868      15.602628938623894      13.652300321295906
   249   1      1.9503286173279868      15.602628938623894      15.602628938623894
   250   1      1.9503286173279868      15.602628938623894      17.552957555951881
   251   1      1.9503286173279868      15.602628938623894      19.503286173279868
   252   1      1.9503286173279868      15.602628938623894      21.453614790607855
   253   1      1.9503286173279868      17.552957555951881                       0
   254   1      1.9503286173279868      17.552957555951881      1.9503286173279868
   255   1      1.9503286173279868      17.552957555951881      3.9006572346559736
   256   1      1.9503286173279868      17.552957555951881      5.8509858519839604
   257   1      1.9503286173279868      17.552957555951881      7.8013144693119472
   258   1      1.9503286173279868      17.552957555951881       9.751643086639934
   259   1      1.9503286173279868      17.552957555951881      11.701971703967919
   260   1      1.9503286173279868      17.552957555951881      13.652300321295906
   261   1      1.9503286173279868      17.552957555951881      15.602628938623894
   262   1      1.9503286173279868      17.552957555951881      17.552957555951881
   263   1      1.9503286173279868      17.552957555951881      19.503286173279868
   264   1      1.9503286173279868      17.552957555951881      21.453614790607855
   265   1      1.9503286173279868      19.503286173279868                       0
   266   1      1.9503286173279868      19.503286173279868      1.9503286173279868
   267   1      1.9503286173279868      19.503286173279868      3.9006572346559736
   268   1      1.9503286173279868      19.503286173279868      5.8509858519839604
   269   1      1.9503286173279868      19.503286173279868      7.8013144693119472
   270   1      1.9503286173279868      19.503286173279868       9.751643086639934
   271   1      1.9503286173279868      19.503286173279868      11.701971703967919
   272   1      1.9503286173279868      19.503286173279868      13.652300321295906
   273   1      1.9503286173279868      19.503286173279868      15.602628938623894
   274   1      1.9503286173279868      19.503286173279868      17.552957555951881
   275   1      1.9503286173279868      19.503286173279868      19.503286173279868
   276   1      1.9503286173279868      19.503286173279868      21.453614790607855
   277   1      1.9503286173279868      21.453614790607855                       0
   278   1      1.9503286173279868      21.453614790607855      1.9503286173279868
   279   1      1.9503286173279868      21.453614790607855      3.9006572346559736
   280   1      1.9503286173279868      21.453614790607855      5.8509858519839604
   281   1      1.9503286173279868      21.453614790607855      7.8013144693119472
   282   1      1.9503286173279868      21.453614790607855       9.751643086639934
   283   1      1.9503286173279868      21.453614790607855      11.701971703967919
   284   1      1.9503286173279868      21.453614790607855      13.652300321295906
   285   1      1.9503286173279868      21.453614790607855      15.602628938623894
   286   1      1.9503286173279868      21.453614790607855      17.552957555951881
   287   1      1.9503286173279868      21.453614790607855      19.503286173279868
   288   1      1.9503286173279868      21.453614790607855      21.453614790607855
   289   1      3.9006572346559736                       0                       0
   290   1      3.9006572346559736                       0      1.9503286173279868
   291   1      3.9006572346559736                       0      3.9006572346559736
   292   1      3.9006572346559736                       0      5.8509858519839604
   293   1      3.9006572346559736                       0      7.8013144693119472
   294   1      3.9006572346559736                       0       9.751643086639934
   295   1      3.9006572346559736                       0      11.701971703967919
   296   1      3.9006572346559736                       0      13.652300321295906
   297   1      3.9006572346559736                       0      15.602628938623894
   298   1      3.9006572346559736                       0      17.552957555951881
   299   1      3.9006572346559736                       0      19.503286173279868
   300   1      3.9006572346559736                       0      21.453614790607855
   301   1      3.9006572346559736      1.9503286173279868                       0
   302   1      3.9006572346559736      1.9503286173279868      1.9503286173279868
   303   1      3.9006572346559736      1.9503286173279868      3.9006572346559736
   304   1      3.9006572346559736      1.9503286173279868      5.8509858519839604
   305   1      3.9006572346559736      1.9503286173279868      7.8013144693119472
   306   1      3.9006572346559736      1.9503286173279868       9.751643086639934
   307   1      3.9006572346559736      1.9503286173279868      11.701971703967919
   308   1      3.9006572346559736      1.9503286173279868      13.652300321295906
   309   1      3.9006572346559736      1.9503286173279868      15.602628938623894
   310   1      3.9006572346559736      1.9503286173279868      17.552957555951881
   311   1      3.9006572346559736      1.9503286173279868      19.503286173279868
   312   1      3.9006572346559736      1.9503286173279868      21.453614790607855
   313   1      3.9006572346559736      3.9006572346559736                       0
   314   1      3.9006572346559736      3.9006572346559736      1.9503286173279868
   315   1      3.9006572346559736      3.9006572346559736      3.9006572346559736
   316   1      3.9006572346559736      3.9006572346559736      5.8509858519839604
   317   1      3.9006572346559736      3.9006572346559736      7.8013144693119472
   318   1      3.9006572346559736      3.9006572346559736       9.751643086639934
   319   1      3.9006572346559736      3.9006572346559736      11.701971703967919
   320   1      3.9006572346559736      3.9006572346559736      13.652300321295906
   321   1      3.9006572346559736      3.9006572346559736      15.602628938623894
   322   1      3.9006572346559736      3.9006572346559736      17.552957555951881
   323   1      3.9006572346559736      3.9006572346559736      19.503286173279868
   324   1      3.9006572346559736      3.9006572346559736      21.453614790607855
   325   1      3.9006572346559736      5.8509858519839604                       0
   326   1      3.9006572346559736      5.8509858519839604      1.9503286173279868
   327   1      3.9006572346559736      5.8509858519839604      3.9006572346559736
   328   1      3.9006572346559736      5.8509858519839604      5.8509858519839604
   329   1      3.9006572346559736      5.8509858519839604      7.8013144693119472
   330   1      3.9006572346559736      5.8509858519839604       9.751643086639934
   331   1      3.9006572346559736      5.8509858519839604      11.701971703967919
   332   1      3.9006572346559736      5.8509858519839604      13.652300321295906
   333   1      3.9006572346559736      5.8509858519839604      15.602628938623894
   334   1      3.9006572346559736      5.8509858519839604      17.552957555951881
   335   1      3.9006572346559736      5.8509858519839604      19.503286173279868
   336   1      3.9006572346559736      5.8509858519839604      21.453614790607855
   337   1      3.9006572346559736      7.8013144693119472                       0
   338   1      3.9006572346559736      7.8013144693119472      1.9503286173279868
   339   1      3.9006572346559736      7.8013144693119472      3.9006572346559736
   340   1      3.9006572346559736      7.8013144693119472      5.8509858519839604
   341   1      3.9006572346559736      7.8013144693119472      7.8013144693119472
   342   1      3.9006572346559736      7.8013144693119472       9.751643086639934
   343   1      3.9006572346559736      7.8013144693119472      11.701971703967919
   344   1      3.9006572346559736      7.8013144693119472      13.652300321295906
   345   1      3.9006572346559736      7.8013144693119472      15.602628938623894
   346   1      3.9006572346559736      7.8013144693119472      17.552957555951881
   347   1      3.9006572346559736      7.8013144693119472      19.503286173279868
   348   1      3.9006572346559736      7.8013144693119472      21.453614790607855
   349   1      3.9006572346559736       9.751643086639934                       0
   350   1      3.9006572346559736       9.751643086639934      1.9503286173279868
   351   1      3.9006572346559736       9.751643086639934      3.9006572346559736
   352   1      3.9006572346559736       9.751643086639934      5.8509858519839604
   353   1      3.9006572346559736       9.751643086639934      7.8013144693119472
   354   1      3.9006572346559736       9.751643086639934       9.751643086639934
   355   1      3.9006572346559736       9.751643086639934      11.701971703967919
   356   1      3.9006572346559736       9.751643086639934      13.652300321295906
   357   1      3.9006572346559736       9.751643086639934      15.602628938623894
   358   1      3.9006572346559736       9.751643086639934      17.552957555951881
   359   1      3.9006572346559736       9.751643086639934      19.503286173279868