rho10.7-101010.lmp (written by ASE) 

1000 	 atoms 
1  atom types
0.0      20.540761422147142  xlo xhi
0.0      20.540761422147142  ylo yhi
0.0      20.540761422147142  zlo zhi


Atoms 

     1   1                       0                       0                       0
     2   1                       0                       0      2.0540761422147145
     3   1                       0                       0      4.1081522844294289
     4   1                       0                       0      6.1622284266441438
     5   1                       0                       0      8.2163045688588578
     6   1                       0                       0      10.270380711073569
     7   1                       0                       0      12.324456853288288
     8   1                       0                       0      14.378532995503001
     9   1                       0                       0      16.432609137717716
    10   1                       0                       0      18.486685279932427
    11   1                       0      2.0540761422147145                       0
    12   1                       0      2.0540761422147145      2.0540761422147145
    13   1                       0      2.0540761422147145      4.1081522844294289
    14   1                       0      2.0540761422147145      6.1622284266441438
    15   1                       0      2.0540761422147145      8.2163045688588578
    16   1                       0      2.0540761422147145      10.270380711073569
    17   1                       0      2.0540761422147145      12.324456853288288
    18   1                       0      2.0540761422147145      14.378532995503001
    19   1                       0      2.0540761422147145      16.432609137717716
    20   1                       0      2.0540761422147145      18.486685279932427
    21   1                       0      4.1081522844294289                       0
    22   1                       0      4.1081522844294289      2.0540761422147145
    23   1                       0      4.1081522844294289      4.1081522844294289
    24   1                       0      4.1081522844294289      6.1622284266441438
    25   1                       0      4.1081522844294289      8.2163045688588578
    26   1                       0      4.1081522844294289      10.270380711073569
    27   1                       0      4.1081522844294289      12.324456853288288
    28   1                       0      4.1081522844294289      14.378532995503001
    29   1                       0      4.1081522844294289      16.432609137717716
    30   1                       0      4.1081522844294289      18.486685279932427
    31   1                       0      6.1622284266441438                       0
    32   1                       0      6.1622284266441438      2.0540761422147145
    33   1                       0      6.1622284266441438      4.1081522844294289
    34   1                       0      6.1622284266441438      6.1622284266441438
    35   1                       0      6.1622284266441438      8.2163045688588578
    36   1                       0      6.1622284266441438      10.270380711073569
    37   1                       0      6.1622284266441438      12.324456853288288
    38   1                       0      6.1622284266441438      14.378532995503001
    39   1                       0      6.1622284266441438      16.432609137717716
    40   1                       0      6.1622284266441438      18.486685279932427
    41   1                       0      8.2163045688588578                       0
    42   1                       0      8.2163045688588578      2.0540761422147145
    43   1                       0      8.2163045688588578      4.1081522844294289
    44   1                       0      8.2163045688588578      6.1622284266441438
    45   1                       0      8.2163045688588578      8.2163045688588578
    46   1                       0      8.2163045688588578      10.270380711073569
    47   1                       0      8.2163045688588578      12.324456853288288
    48   1                       0      8.2163045688588578      14.378532995503001
    49   1                       0      8.2163045688588578      16.432609137717716
    50   1                       0      8.2163045688588578      18.486685279932427
    51   1                       0      10.270380711073569                       0
    52   1                       0      10.270380711073569      2.0540761422147145
    53   1                       0      10.270380711073569      4.1081522844294289
    54   1                       0      10.270380711073569      6.1622284266441438
    55   1                       0      10.270380711073569      8.2163045688588578
    56   1                       0      10.270380711073569      10.270380711073569
    57   1                       0      10.270380711073569      12.324456853288288
    58   1                       0      10.270380711073569      14.378532995503001
    59   1                       0      10.270380711073569      16.432609137717716
    60   1                       0      10.270380711073569      18.486685279932427
    61   1                       0      12.324456853288288                       0
    62   1                       0      12.324456853288288      2.0540761422147145
    63   1                       0      12.324456853288288      4.1081522844294289
    64   1                       0      12.324456853288288      6.1622284266441438
    65   1                       0      12.324456853288288      8.2163045688588578
    66   1                       0      12.324456853288288      10.270380711073569
    67   1                       0      12.324456853288288      12.324456853288288
    68   1                       0      12.324456853288288      14.378532995503001
    69   1                       0      12.324456853288288      16.432609137717716
    70   1                       0      12.324456853288288      18.486685279932427
    71   1                       0      14.378532995503001                       0
    72   1                       0      14.378532995503001      2.0540761422147145
    73   1                       0      14.378532995503001      4.1081522844294289
    74   1                       0      14.378532995503001      6.1622284266441438
    75   1                       0      14.378532995503001      8.2163045688588578
    76   1                       0      14.378532995503001      10.270380711073569
    77   1                       0      14.378532995503001      12.324456853288288
    78   1                       0      14.378532995503001      14.378532995503001
    79   1                       0      14.378532995503001      16.432609137717716
    80   1                       0      14.378532995503001      18.486685279932427
    81   1                       0      16.432609137717716                       0
    82   1                       0      16.432609137717716      2.0540761422147145
    83   1                       0      16.432609137717716      4.1081522844294289
    84   1                       0      16.432609137717716      6.1622284266441438
    85   1                       0      16.432609137717716      8.2163045688588578
    86   1                       0      16.432609137717716      10.270380711073569
    87   1                       0      16.432609137717716      12.324456853288288
    88   1                       0      16.432609137717716      14.378532995503001
    89   1                       0      16.432609137717716      16.432609137717716
    90   1                       0      16.432609137717716      18.486685279932427
    91   1                       0      18.486685279932427                       0
    92   1                       0      18.486685279932427      2.0540761422147145
    93   1                       0      18.486685279932427      4.1081522844294289
    94   1                       0      18.486685279932427      6.1622284266441438
    95   1                       0      18.486685279932427      8.2163045688588578
    96   1                       0      18.486685279932427      10.270380711073569
    97   1                       0      18.486685279932427      12.324456853288288
    98   1                       0      18.486685279932427      14.378532995503001
    99   1                       0      18.486685279932427      16.432609137717716
   100   1                       0      18.486685279932427      18.486685279932427
   101   1      2.0540761422147145                       0                       0
   102   1      2.0540761422147145                       0      2.0540761422147145
   103   1      2.0540761422147145                       0      4.1081522844294289
   104   1      2.0540761422147145                       0      6.1622284266441438
   105   1      2.0540761422147145                       0      8.2163045688588578
   106   1      2.0540761422147145                       0      10.270380711073569
   107   1      2.0540761422147145                       0      12.324456853288288
   108   1      2.0540761422147145                       0      14.378532995503001
   109   1      2.0540761422147145                       0      16.432609137717716
   110   1      2.0540761422147145                       0      18.486685279932427
   111   1      2.0540761422147145      2.0540761422147145                       0
   112   1      2.0540761422147145      2.0540761422147145      2.0540761422147145
   113   1      2.0540761422147145      2.0540761422147145      4.1081522844294289
   114   1      2.0540761422147145      2.0540761422147145      6.1622284266441438
   115   1      2.0540761422147145      2.0540761422147145      8.2163045688588578
   116   1      2.0540761422147145      2.0540761422147145      10.270380711073569
   117   1      2.0540761422147145      2.0540761422147145      12.324456853288288
   118   1      2.0540761422147145      2.0540761422147145      14.378532995503001
   119   1      2.0540761422147145      2.0540761422147145      16.432609137717716
   120   1      2.0540761422147145      2.0540761422147145      18.486685279932427
   121   1      2.0540761422147145      4.1081522844294289                       0
   122   1      2.0540761422147145      4.1081522844294289      2.0540761422147145
   123   1      2.0540761422147145      4.1081522844294289      4.1081522844294289
   124   1      2.0540761422147145      4.1081522844294289      6.1622284266441438
   125   1      2.0540761422147145      4.1081522844294289      8.2163045688588578
   126   1      2.0540761422147145      4.1081522844294289      10.270380711073569
   127   1      2.0540761422147145      4.1081522844294289      12.324456853288288
   128   1      2.0540761422147145      4.1081522844294289      14.378532995503001
   129   1      2.0540761422147145      4.1081522844294289      16.432609137717716
   130   1      2.0540761422147145      4.1081522844294289      18.486685279932427
   131   1      2.0540761422147145      6.1622284266441438                       0
   132   1      2.0540761422147145      6.1622284266441438      2.0540761422147145
   133   1      2.0540761422147145      6.1622284266441438      4.1081522844294289
   134   1      2.0540761422147145      6.1622284266441438      6.1622284266441438
   135   1      2.0540761422147145      6.1622284266441438      8.2163045688588578
   136   1      2.0540761422147145      6.1622284266441438      10.270380711073569
   137   1      2.0540761422147145      6.1622284266441438      12.324456853288288
   138   1      2.0540761422147145      6.1622284266441438      14.378532995503001
   139   1      2.0540761422147145      6.1622284266441438      16.432609137717716
   140   1      2.0540761422147145      6.1622284266441438      18.486685279932427
   141   1      2.0540761422147145      8.2163045688588578                       0
   142   1      2.0540761422147145      8.2163045688588578      2.0540761422147145
   143   1      2.0540761422147145      8.2163045688588578      4.1081522844294289
   144   1      2.0540761422147145      8.2163045688588578      6.1622284266441438
   145   1      2.0540761422147145      8.2163045688588578      8.2163045688588578
   146   1      2.0540761422147145      8.2163045688588578      10.270380711073569
   147   1      2.0540761422147145      8.2163045688588578      12.324456853288288
   148   1      2.0540761422147145      8.2163045688588578      14.378532995503001
   149   1      2.0540761422147145      8.2163045688588578      16.432609137717716
   150   1      2.0540761422147145      8.2163045688588578      18.486685279932427
   151   1      2.0540761422147145      10.270380711073569                       0
   152   1      2.0540761422147145      10.270380711073569      2.0540761422147145
   153   1      2.0540761422147145      10.270380711073569      4.1081522844294289
   154   1      2.0540761422147145      10.270380711073569      6.1622284266441438
   155   1      2.0540761422147145      10.270380711073569      8.2163045688588578
   156   1      2.0540761422147145      10.270380711073569      10.270380711073569
   157   1      2.0540761422147145      10.270380711073569      12.324456853288288
   158   1      2.0540761422147145      10.270380711073569      14.378532995503001
   159   1      2.0540761422147145      10.270380711073569      16.432609137717716
   160   1      2.0540761422147145      10.270380711073569      18.486685279932427
   161   1      2.0540761422147145      12.324456853288288                       0
   162   1      2.0540761422147145      12.324456853288288      2.0540761422147145
   163   1      2.0540761422147145      12.324456853288288      4.1081522844294289
   164   1      2.0540761422147145      12.324456853288288      6.1622284266441438
   165   1      2.0540761422147145      12.324456853288288      8.2163045688588578
   166   1      2.0540761422147145      12.324456853288288      10.270380711073569
   167   1      2.0540761422147145      12.324456853288288      12.324456853288288
   168   1      2.0540761422147145      12.324456853288288      14.378532995503001
   169   1      2.0540761422147145      12.324456853288288      16.432609137717716
   170   1      2.0540761422147145      12.324456853288288      18.486685279932427
   171   1      2.0540761422147145      14.378532995503001                       0
   172   1      2.0540761422147145      14.378532995503001      2.0540761422147145
   173   1      2.0540761422147145      14.378532995503001      4.1081522844294289
   174   1      2.0540761422147145      14.378532995503001      6.1622284266441438
   175   1      2.0540761422147145      14.378532995503001      8.2163045688588578
   176   1      2.0540761422147145      14.378532995503001      10.270380711073569
   177   1      2.0540761422147145      14.378532995503001      12.324456853288288
   178   1      2.0540761422147145      14.378532995503001      14.378532995503001
   179   1      2.0540761422147145      14.378532995503001      16.432609137717716
   180   1      2.0540761422147145      14.378532995503001      18.486685279932427
   181   1      2.0540761422147145      16.432609137717716                       0
   182   1      2.0540761422147145      16.432609137717716      2.0540761422147145
   183   1      2.0540761422147145      16.432609137717716      4.1081522844294289
   184   1      2.0540761422147145      16.432609137717716      6.1622284266441438
   185   1      2.0540761422147145      16.432609137717716      8.2163045688588578
   186   1      2.0540761422147145      16.432609137717716      10.270380711073569
   187   1      2.0540761422147145      16.432609137717716      12.324456853288288
   188   1      2.0540761422147145      16.432609137717716      14.378532995503001
   189   1      2.0540761422147145      16.432609137717716      16.432609137717716
   190   1      2.0540761422147145      16.432609137717716      18.486685279932427
   191   1      2.0540761422147145      18.486685279932427                       0
   192   1      2.0540761422147145      18.486685279932427      2.0540761422147145
   193   1      2.0540761422147145      18.486685279932427      4.1081522844294289
   194   1      2.0540761422147145      18.486685279932427      6.1622284266441438
   195   1      2.0540761422147145      18.486685279932427      8.2163045688588578
   196   1      2.0540761422147145      18.486685279932427      10.270380711073569
   197   1      2.0540761422147145      18.486685279932427      12.324456853288288
   198   1      2.0540761422147145      18.486685279932427      14.378532995503001
   199   1      2.0540761422147145      18.486685279932427      16.432609137717716
   200   1      2.0540761422147145      18.486685279932427      18.486685279932427
   201   1      4.1081522844294289                       0                       0
   202   1      4.1081522844294289                       0      2.0540761422147145
   203   1      4.1081522844294289                       0      4.1081522844294289
   204   1      4.1081522844294289                       0      6.1622284266441438
   205   1      4.1081522844294289                       0      8.2163045688588578
   206   1      4.1081522844294289                       0      10.270380711073569
   207   1      4.1081522844294289                       0      12.324456853288288
   208   1      4.1081522844294289                       0      14.378532995503001
   209   1      4.1081522844294289                       0      16.432609137717716
   210   1      4.1081522844294289                       0      18.486685279932427
   211   1      4.1081522844294289      2.0540761422147145                       0
   212   1      4.1081522844294289      2.0540761422147145      2.0540761422147145
   213   1      4.1081522844294289      2.0540761422147145      4.1081522844294289
   214   1      4.1081522844294289      2.0540761422147145      6.1622284266441438
   215   1      4.1081522844294289      2.0540761422147145      8.2163045688588578
   216   1      4.1081522844294289      2.0540761422147145      10.270380711073569
   217   1      4.1081522844294289      2.0540761422147145      12.324456853288288
   218   1      4.1081522844294289      2.0540761422147145      14.378532995503001
   219   1      4.1081522844294289      2.0540761422147145      16.432609137717716
   220   1      4.1081522844294289      2.0540761422147145      18.486685279932427
   221   1      4.1081522844294289      4.1081522844294289                       0
   222   1      4.1081522844294289      4.1081522844294289      2.0540761422147145
   223   1      4.1081522844294289      4.1081522844294289      4.1081522844294289
   224   1      4.1081522844294289      4.1081522844294289      6.1622284266441438
   225   1      4.1081522844294289      4.1081522844294289      8.2163045688588578
   226   1      4.1081522844294289      4.1081522844294289      10.270380711073569
   227   1      4.1081522844294289      4.1081522844294289      12.324456853288288
   228   1      4.1081522844294289      4.1081522844294289      14.378532995503001
   229   1      4.1081522844294289      4.1081522844294289      16.432609137717716
   230   1      4.1081522844294289      4.1081522844294289      18.486685279932427
   231   1      4.1081522844294289      6.1622284266441438                       0
   232   1      4.1081522844294289      6.1622284266441438      2.0540761422147145
   233   1      4.1081522844294289      6.1622284266441438      4.1081522844294289
   234   1      4.1081522844294289      6.1622284266441438      6.1622284266441438
   235   1      4.1081522844294289      6.1622284266441438      8.2163045688588578
   236   1      4.1081522844294289      6.1622284266441438      10.270380711073569
   237   1      4.1081522844294289      6.1622284266441438      12.324456853288288
   238   1      4.1081522844294289      6.1622284266441438      14.378532995503001
   239   1      4.1081522844294289      6.1622284266441438      16.432609137717716
   240   1      4.1081522844294289      6.1622284266441438      18.486685279932427
   241   1      4.1081522844294289      8.2163045688588578                       0
   242   1      4.1081522844294289      8.2163045688588578      2.0540761422147145
   243   1      4.1081522844294289      8.2163045688588578      4.1081522844294289
   244   1      4.1081522844294289      8.2163045688588578      6.1622284266441438
   245   1      4.1081522844294289      8.2163045688588578      8.2163045688588578
   246   1      4.1081522844294289      8.2163045688588578      10.270380711073569
   247   1      4.1081522844294289      8.2163045688588578      12.324456853288288
   248   1      4.1081522844294289      8.2163045688588578      14.378532995503001
   249   1      4.1081522844294289      8.2163045688588578      16.432609137717716
   250   1      4.1081522844294289      8.2163045688588578      18.486685279932427
   251   1      4.1081522844294289      10.270380711073569                       0
   252   1      4.1081522844294289      10.270380711073569      2.0540761422147145
   253   1      4.1081522844294289      10.270380711073569      4.1081522844294289
   254   1      4.1081522844294289      10.270380711073569      6.1622284266441438
   255   1      4.1081522844294289      10.270380711073569      8.2163045688588578
   256   1      4.1081522844294289      10.270380711073569      10.270380711073569
   257   1      4.1081522844294289      10.270380711073569      12.324456853288288
   258   1      4.1081522844294289      10.270380711073569      14.378532995503001
   259   1      4.1081522844294289      10.270380711073569      16.432609137717716
   260   1      4.1081522844294289      10.270380711073569      18.486685279932427
   261   1      4.1081522844294289      12.324456853288288                       0
   262   1      4.1081522844294289      12.324456853288288      2.0540761422147145
   263   1      4.1081522844294289      12.324456853288288      4.1081522844294289
   264   1      4.1081522844294289      12.324456853288288      6.1622284266441438
   265   1      4.1081522844294289      12.324456853288288      8.2163045688588578
   266   1      4.1081522844294289      12.324456853288288      10.270380711073569
   267   1      4.1081522844294289      12.324456853288288      12.324456853288288
   268   1      4.1081522844294289      12.324456853288288      14.378532995503001
   269   1      4.1081522844294289      12.324456853288288      16.432609137717716
   270   1      4.1081522844294289      12.324456853288288      18.486685279932427
   271   1      4.1081522844294289      14.378532995503001                       0
   272   1      4.1081522844294289      14.378532995503001      2.0540761422147145
   273   1      4.1081522844294289      14.378532995503001      4.1081522844294289
   274   1      4.1081522844294289      14.378532995503001      6.1622284266441438
   275   1      4.1081522844294289      14.378532995503001      8.2163045688588578
   276   1      4.1081522844294289      14.378532995503001      10.270380711073569
   277   1      4.1081522844294289      14.378532995503001      12.324456853288288
   278   1      4.1081522844294289      14.378532995503001      14.378532995503001
   279   1      4.1081522844294289      14.378532995503001      16.432609137717716
   280   1      4.1081522844294289      14.378532995503001      18.486685279932427
   281   1      4.1081522844294289      16.432609137717716                       0
   282   1      4.1081522844294289      16.432609137717716      2.0540761422147145
   283   1      4.1081522844294289      16.432609137717716      4.1081522844294289
   284   1      4.1081522844294289      16.432609137717716      6.1622284266441438
   285   1      4.1081522844294289      16.432609137717716      8.2163045688588578
   286   1      4.1081522844294289      16.432609137717716      10.270380711073569
   287   1      4.1081522844294289      16.432609137717716      12.324456853288288
   288   1      4.1081522844294289      16.432609137717716      14.378532995503001
   289   1      4.1081522844294289      16.432609137717716      16.432609137717716
   290   1      4.1081522844294289      16.432609137717716      18.486685279932427
   291   1      4.1081522844294289      18.486685279932427                       0
   292   1      4.1081522844294289      18.486685279932427      2.0540761422147145
   293   1      4.1081522844294289      18.486685279932427      4.1081522844294289
   294   1      4.1081522844294289      18.486685279932427      6.1622284266441438
   295   1      4.1081522844294289      18.486685279932427      8.2163045688588578
   296   1      4.1081522844294289      18.486685279932427      10.270380711073569
   297   1      4.1081522844294289      18.486685279932427      12.324456853288288
   298   1      4.1081522844294289      18.486685279932427      14.378532995503001
   299   1      4.1081522844294289      18.486685279932427      16.432609137717716
   300   1      4.1081522844294289      18.486685279932427      18.486685279932427
   301   1      6.1622284266441438                       0                       0
   302   1      6.1622284266441438                       0      2.0540761422147145
   303   1      6.1622284266441438                       0      4.1081522844294289
   304   1      6.1622284266441438                       0      6.1622284266441438
   305   1      6.1622284266441438                       0      8.2163045688588578
   306   1      6.1622284266441438                       0      10.270380711073569
   307   1      6.1622284266441438                       0      12.324456853288288
   308   1      6.1622284266441438                       0      14.378532995503001
   309   1      6.1622284266441438                       0      16.432609137717716
   310   1      6.1622284266441438                       0      18.486685279932427
   311   1      6.1622284266441438      2.0540761422147145                       0
   312   1      6.1622284266441438      2.0540761422147145      2.0540761422147145
   313   1      6.1622284266441438      2.0540761422147145      4.1081522844294289
   314   1      6.1622284266441438      2.0540761422147145      6.1622284266441438
   315   1      6.1622284266441438      2.0540761422147145      8.2163045688588578
   316   1      6.1622284266441438      2.0540761422147145      10.270380711073569
   317   1      6.1622284266441438      2.0540761422147145      12.324456853288288
   318   1      6.1622284266441438      2.0540761422147145      14.378532995503001
   319   1      6.1622284266441438      2.0540761422147145      16.432609137717716
   320   1      6.1622284266441438      2.0540761422147145      18.486685279932427
   321   1      6.1622284266441438      4.1081522844294289                       0
   322   1      6.1622284266441438      4.1081522844294289      2.0540761422147145
   323   1      6.1622284266441438      4.1081522844294289      4.1081522844294289
   324   1      6.1622284266441438      4.1081522844294289      6.1622284266441438
   325   1      6.1622284266441438      4.1081522844294289      8.2163045688588578
   326   1      6.1622284266441438      4.1081522844294289      10.270380711073569
   327   1      6.1622284266441438      4.1081522844294289      12.324456853288288
   328   1      6.1622284266441438      4.1081522844294289      14.378532995503001
   329   1      6.1622284266441438      4.1081522844294289      16.432609137717716
   330   1      6.1622284266441438      4.1081522844294289      18.486685279932427
   331   1      6.1622284266441438      6.1622284266441438                       0
   332   1      6.1622284266441438      6.1622284266441438      2.0540761422147145
   333   1      6.1622284266441438      6.1622284266441438      4.1081522844294289
   334   1      6.1622284266441438      6.1622284266441438      6.1622284266441438
   335   1      6.1622284266441438      6.1622284266441438      8.2163045688588578
   336   1      6.1622284266441438      6.1622284266441438      10.270380711073569
   337   1      6.1622284266441438      6.1622284266441438      12.324456853288288
   338   1      6.1622284266441438      6.1622284266441438      14.378532995503001
   339   1      6.1622284266441438      6.1622284266441438      16.432609137717716
   340   1      6.1622284266441438      6.1622284266441438      18.486685279932427
   341   1      6.1622284266441438      8.2163045688588578                       0
   342   1      6.1622284266441438      8.2163045688588578      2.0540761422147145
   343   1      6.1622284266441438      8.2163045688588578      4.1081522844294289
   344   1      6.1622284266441438      8.2163045688588578      6.1622284266441438
   345   1      6.1622284266441438      8.2163045688588578      8.2163045688588578
   346   1      6.1622284266441438      8.2163045688588578      10.270380711073569
   347   1      6.1622284266441438      8.2163045688588578      12.324456853288288
   348   1      6.1622284266441438      8.2163045688588578      14.378532995503001
   349   1      6.1622284266441438      8.2163045688588578      16.432609137717716
   350   1      6.1622284266441438      8.2163045688588578      18.486685279932427
   351   1      6.1622284266441438      10.270380711073569                       0
   352   1      6.1622284266441438      10.270380711073569      2.0540761422147145
   353   1      6.1622284266441438      10.270380711073569      4.1081522844294289
   354   1      6.1622284266441438      10.270380711073569      6.1622284266441438
   355   1      6.1622284266441438      10.270380711073569      8.2163045688588578
   356   1      6.1622284266441438      10.270380711073569      10.270380711073569
   357   1      6.1622284266441438      10.270380711073569      12.324456853288288
   358   1      6.1622284266441438      10.270380711073569      14.378532995503001
   359   1      6.1622284266441438      10.270380711073569      16.432609137717716