rho10.7-121212.lmp (written by ASE) 

1728 	 atoms 
1  atom types
0.0      24.648913706576568  xlo xhi
0.0      24.648913706576568  ylo yhi
0.0      24.648913706576568  zlo zhi


Atoms 

     1   1                       0                       0                       0
     2   1                       0                       0       2.054076142214714
     3   1                       0                       0       4.108152284429428
     4   1                       0                       0      6.1622284266441421
     5   1                       0                       0      8.2163045688588561
     6   1                       0                       0      10.270380711073569
     7   1                       0                       0      12.324456853288282
     8   1                       0                       0      14.378532995502995
     9   1                       0                       0      16.432609137717712
    10   1                       0                       0      18.486685279932427
    11   1                       0                       0      20.540761422147138
    12   1                       0                       0      22.594837564361853
    13   1                       0       2.054076142214714                       0
    14   1                       0       2.054076142214714       2.054076142214714
    15   1                       0       2.054076142214714       4.108152284429428
    16   1                       0       2.054076142214714      6.1622284266441421
    17   1                       0       2.054076142214714      8.2163045688588561
    18   1                       0       2.054076142214714      10.270380711073569
    19   1                       0       2.054076142214714      12.324456853288282
    20   1                       0       2.054076142214714      14.378532995502995
    21   1                       0       2.054076142214714      16.432609137717712
    22   1                       0       2.054076142214714      18.486685279932427
    23   1                       0       2.054076142214714      20.540761422147138
    24   1                       0       2.054076142214714      22.594837564361853
    25   1                       0       4.108152284429428                       0
    26   1                       0       4.108152284429428       2.054076142214714
    27   1                       0       4.108152284429428       4.108152284429428
    28   1                       0       4.108152284429428      6.1622284266441421
    29   1                       0       4.108152284429428      8.2163045688588561
    30   1                       0       4.108152284429428      10.270380711073569
    31   1                       0       4.108152284429428      12.324456853288282
    32   1                       0       4.108152284429428      14.378532995502995
    33   1                       0       4.108152284429428      16.432609137717712
    34   1                       0       4.108152284429428      18.486685279932427
    35   1                       0       4.108152284429428      20.540761422147138
    36   1                       0       4.108152284429428      22.594837564361853
    37   1                       0      6.1622284266441421                       0
    38   1                       0      6.1622284266441421       2.054076142214714
    39   1                       0      6.1622284266441421       4.108152284429428
    40   1                       0      6.1622284266441421      6.1622284266441421
    41   1                       0      6.1622284266441421      8.2163045688588561
    42   1                       0      6.1622284266441421      10.270380711073569
    43   1                       0      6.1622284266441421      12.324456853288282
    44   1                       0      6.1622284266441421      14.378532995502995
    45   1                       0      6.1622284266441421      16.432609137717712
    46   1                       0      6.1622284266441421      18.486685279932427
    47   1                       0      6.1622284266441421      20.540761422147138
    48   1                       0      6.1622284266441421      22.594837564361853
    49   1                       0      8.2163045688588561                       0
    50   1                       0      8.2163045688588561       2.054076142214714
    51   1                       0      8.2163045688588561       4.108152284429428
    52   1                       0      8.2163045688588561      6.1622284266441421
    53   1                       0      8.2163045688588561      8.2163045688588561
    54   1                       0      8.2163045688588561      10.270380711073569
    55   1                       0      8.2163045688588561      12.324456853288282
    56   1                       0      8.2163045688588561      14.378532995502995
    57   1                       0      8.2163045688588561      16.432609137717712
    58   1                       0      8.2163045688588561      18.486685279932427
    59   1                       0      8.2163045688588561      20.540761422147138
    60   1                       0      8.2163045688588561      22.594837564361853
    61   1                       0      10.270380711073569                       0
    62   1                       0      10.270380711073569       2.054076142214714
    63   1                       0      10.270380711073569       4.108152284429428
    64   1                       0      10.270380711073569      6.1622284266441421
    65   1                       0      10.270380711073569      8.2163045688588561
    66   1                       0      10.270380711073569      10.270380711073569
    67   1                       0      10.270380711073569      12.324456853288282
    68   1                       0      10.270380711073569      14.378532995502995
    69   1                       0      10.270380711073569      16.432609137717712
    70   1                       0      10.270380711073569      18.486685279932427
    71   1                       0      10.270380711073569      20.540761422147138
    72   1                       0      10.270380711073569      22.594837564361853
    73   1                       0      12.324456853288282                       0
    74   1                       0      12.324456853288282       2.054076142214714
    75   1                       0      12.324456853288282       4.108152284429428
    76   1                       0      12.324456853288282      6.1622284266441421
    77   1                       0      12.324456853288282      8.2163045688588561
    78   1                       0      12.324456853288282      10.270380711073569
    79   1                       0      12.324456853288282      12.324456853288282
    80   1                       0      12.324456853288282      14.378532995502995
    81   1                       0      12.324456853288282      16.432609137717712
    82   1                       0      12.324456853288282      18.486685279932427
    83   1                       0      12.324456853288282      20.540761422147138
    84   1                       0      12.324456853288282      22.594837564361853
    85   1                       0      14.378532995502995                       0
    86   1                       0      14.378532995502995       2.054076142214714
    87   1                       0      14.378532995502995       4.108152284429428
    88   1                       0      14.378532995502995      6.1622284266441421
    89   1                       0      14.378532995502995      8.2163045688588561
    90   1                       0      14.378532995502995      10.270380711073569
    91   1                       0      14.378532995502995      12.324456853288282
    92   1                       0      14.378532995502995      14.378532995502995
    93   1                       0      14.378532995502995      16.432609137717712
    94   1                       0      14.378532995502995      18.486685279932427
    95   1                       0      14.378532995502995      20.540761422147138
    96   1                       0      14.378532995502995      22.594837564361853
    97   1                       0      16.432609137717712                       0
    98   1                       0      16.432609137717712       2.054076142214714
    99   1                       0      16.432609137717712       4.108152284429428
   100   1                       0      16.432609137717712      6.1622284266441421
   101   1                       0      16.432609137717712      8.2163045688588561
   102   1                       0      16.432609137717712      10.270380711073569
   103   1                       0      16.432609137717712      12.324456853288282
   104   1                       0      16.432609137717712      14.378532995502995
   105   1                       0      16.432609137717712      16.432609137717712
   106   1                       0      16.432609137717712      18.486685279932427
   107   1                       0      16.432609137717712      20.540761422147138
   108   1                       0      16.432609137717712      22.594837564361853
   109   1                       0      18.486685279932427                       0
   110   1                       0      18.486685279932427       2.054076142214714
   111   1                       0      18.486685279932427       4.108152284429428
   112   1                       0      18.486685279932427      6.1622284266441421
   113   1                       0      18.486685279932427      8.2163045688588561
   114   1                       0      18.486685279932427      10.270380711073569
   115   1                       0      18.486685279932427      12.324456853288282
   116   1                       0      18.486685279932427      14.378532995502995
   117   1                       0      18.486685279932427      16.432609137717712
   118   1                       0      18.486685279932427      18.486685279932427
   119   1                       0      18.486685279932427      20.540761422147138
   120   1                       0      18.486685279932427      22.594837564361853
   121   1                       0      20.540761422147138                       0
   122   1                       0      20.540761422147138       2.054076142214714
   123   1                       0      20.540761422147138       4.108152284429428
   124   1                       0      20.540761422147138      6.1622284266441421
   125   1                       0      20.540761422147138      8.2163045688588561
   126   1                       0      20.540761422147138      10.270380711073569
   127   1                       0      20.540761422147138      12.324456853288282
   128   1                       0      20.540761422147138      14.378532995502995
   129   1                       0      20.540761422147138      16.432609137717712
   130   1                       0      20.540761422147138      18.486685279932427
   131   1                       0      20.540761422147138      20.540761422147138
   132   1                       0      20.540761422147138      22.594837564361853
   133   1                       0      22.594837564361853                       0
   134   1                       0      22.594837564361853       2.054076142214714
   135   1                       0      22.594837564361853       4.108152284429428
   136   1                       0      22.594837564361853      6.1622284266441421
   137   1                       0      22.594837564361853      8.2163045688588561
   138   1                       0      22.594837564361853      10.270380711073569
   139   1                       0      22.594837564361853      12.324456853288282
   140   1                       0      22.594837564361853      14.378532995502995
   141   1                       0      22.594837564361853      16.432609137717712
   142   1                       0      22.594837564361853      18.486685279932427
   143   1                       0      22.594837564361853      20.540761422147138
   144   1                       0      22.594837564361853      22.594837564361853
   145   1       2.054076142214714                       0                       0
   146   1       2.054076142214714                       0       2.054076142214714
   147   1       2.054076142214714                       0       4.108152284429428
   148   1       2.054076142214714                       0      6.1622284266441421
   149   1       2.054076142214714                       0      8.2163045688588561
   150   1       2.054076142214714                       0      10.270380711073569
   151   1       2.054076142214714                       0      12.324456853288282
   152   1       2.054076142214714                       0      14.378532995502995
   153   1       2.054076142214714                       0      16.432609137717712
   154   1       2.054076142214714                       0      18.486685279932427
   155   1       2.054076142214714                       0      20.540761422147138
   156   1       2.054076142214714                       0      22.594837564361853
   157   1       2.054076142214714       2.054076142214714                       0
   158   1       2.054076142214714       2.054076142214714       2.054076142214714
   159   1       2.054076142214714       2.054076142214714       4.108152284429428
   160   1       2.054076142214714       2.054076142214714      6.1622284266441421
   161   1       2.054076142214714       2.054076142214714      8.2163045688588561
   162   1       2.054076142214714       2.054076142214714      10.270380711073569
   163   1       2.054076142214714       2.054076142214714      12.324456853288282
   164   1       2.054076142214714       2.054076142214714      14.378532995502995
   165   1       2.054076142214714       2.054076142214714      16.432609137717712
   166   1       2.054076142214714       2.054076142214714      18.486685279932427
   167   1       2.054076142214714       2.054076142214714      20.540761422147138
   168   1       2.054076142214714       2.054076142214714      22.594837564361853
   169   1       2.054076142214714       4.108152284429428                       0
   170   1       2.054076142214714       4.108152284429428       2.054076142214714
   171   1       2.054076142214714       4.108152284429428       4.108152284429428
   172   1       2.054076142214714       4.108152284429428      6.1622284266441421
   173   1       2.054076142214714       4.108152284429428      8.2163045688588561
   174   1       2.054076142214714       4.108152284429428      10.270380711073569
   175   1       2.054076142214714       4.108152284429428      12.324456853288282
   176   1       2.054076142214714       4.108152284429428      14.378532995502995
   177   1       2.054076142214714       4.108152284429428      16.432609137717712
   178   1       2.054076142214714       4.108152284429428      18.486685279932427
   179   1       2.054076142214714       4.108152284429428      20.540761422147138
   180   1       2.054076142214714       4.108152284429428      22.594837564361853
   181   1       2.054076142214714      6.1622284266441421                       0
   182   1       2.054076142214714      6.1622284266441421       2.054076142214714
   183   1       2.054076142214714      6.1622284266441421       4.108152284429428
   184   1       2.054076142214714      6.1622284266441421      6.1622284266441421
   185   1       2.054076142214714      6.1622284266441421      8.2163045688588561
   186   1       2.054076142214714      6.1622284266441421      10.270380711073569
   187   1       2.054076142214714      6.1622284266441421      12.324456853288282
   188   1       2.054076142214714      6.1622284266441421      14.378532995502995
   189   1       2.054076142214714      6.1622284266441421      16.432609137717712
   190   1       2.054076142214714      6.1622284266441421      18.486685279932427
   191   1       2.054076142214714      6.1622284266441421      20.540761422147138
   192   1       2.054076142214714      6.1622284266441421      22.594837564361853
   193   1       2.054076142214714      8.2163045688588561                       0
   194   1       2.054076142214714      8.2163045688588561       2.054076142214714
   195   1       2.054076142214714      8.2163045688588561       4.108152284429428
   196   1       2.054076142214714      8.2163045688588561      6.1622284266441421
   197   1       2.054076142214714      8.2163045688588561      8.2163045688588561
   198   1       2.054076142214714      8.2163045688588561      10.270380711073569
   199   1       2.054076142214714      8.2163045688588561      12.324456853288282
   200   1       2.054076142214714      8.2163045688588561      14.378532995502995
   201   1       2.054076142214714      8.2163045688588561      16.432609137717712
   202   1       2.054076142214714      8.2163045688588561      18.486685279932427
   203   1       2.054076142214714      8.2163045688588561      20.540761422147138
   204   1       2.054076142214714      8.2163045688588561      22.594837564361853
   205   1       2.054076142214714      10.270380711073569                       0
   206   1       2.054076142214714      10.270380711073569       2.054076142214714
   207   1       2.054076142214714      10.270380711073569       4.108152284429428
   208   1       2.054076142214714      10.270380711073569      6.1622284266441421
   209   1       2.054076142214714      10.270380711073569      8.2163045688588561
   210   1       2.054076142214714      10.270380711073569      10.270380711073569
   211   1       2.054076142214714      10.270380711073569      12.324456853288282
   212   1       2.054076142214714      10.270380711073569      14.378532995502995
   213   1       2.054076142214714      10.270380711073569      16.432609137717712
   214   1       2.054076142214714      10.270380711073569      18.486685279932427
   215   1       2.054076142214714      10.270380711073569      20.540761422147138
   216   1       2.054076142214714      10.270380711073569      22.594837564361853
   217   1       2.054076142214714      12.324456853288282                       0
   218   1       2.054076142214714      12.324456853288282       2.054076142214714
   219   1       2.054076142214714      12.324456853288282       4.108152284429428
   220   1       2.054076142214714      12.324456853288282      6.1622284266441421
   221   1       2.054076142214714      12.324456853288282      8.2163045688588561
   222   1       2.054076142214714      12.324456853288282      10.270380711073569
   223   1       2.054076142214714      12.324456853288282      12.324456853288282
   224   1       2.054076142214714      12.324456853288282      14.378532995502995
   225   1       2.054076142214714      12.324456853288282      16.432609137717712
   226   1       2.054076142214714      12.324456853288282      18.486685279932427
   227   1       2.054076142214714      12.324456853288282      20.540761422147138
   228   1       2.054076142214714      12.324456853288282      22.594837564361853
   229   1       2.054076142214714      14.378532995502995                       0
   230   1       2.054076142214714      14.378532995502995       2.054076142214714
   231   1       2.054076142214714      14.378532995502995       4.108152284429428
   232   1       2.054076142214714      14.378532995502995      6.1622284266441421
   233   1       2.054076142214714      14.378532995502995      8.2163045688588561
   234   1       2.054076142214714      14.378532995502995      10.270380711073569
   235   1       2.054076142214714      14.378532995502995      12.324456853288282
   236   1       2.054076142214714      14.378532995502995      14.378532995502995
   237   1       2.054076142214714      14.378532995502995      16.432609137717712
   238   1       2.054076142214714      14.378532995502995      18.486685279932427
   239   1       2.054076142214714      14.378532995502995      20.540761422147138
   240   1       2.054076142214714      14.378532995502995      22.594837564361853
   241   1       2.054076142214714      16.432609137717712                       0
   242   1       2.054076142214714      16.432609137717712       2.054076142214714
   243   1       2.054076142214714      16.432609137717712       4.108152284429428
   244   1       2.054076142214714      16.432609137717712      6.1622284266441421
   245   1       2.054076142214714      16.432609137717712      8.2163045688588561
   246   1       2.054076142214714      16.432609137717712      10.270380711073569
   247   1       2.054076142214714      16.432609137717712      12.324456853288282
   248   1       2.054076142214714      16.432609137717712      14.378532995502995
   249   1       2.054076142214714      16.432609137717712      16.432609137717712
   250   1       2.054076142214714      16.432609137717712      18.486685279932427
   251   1       2.054076142214714      16.432609137717712      20.540761422147138
   252   1       2.054076142214714      16.432609137717712      22.594837564361853
   253   1       2.054076142214714      18.486685279932427                       0
   254   1       2.054076142214714      18.486685279932427       2.054076142214714
   255   1       2.054076142214714      18.486685279932427       4.108152284429428
   256   1       2.054076142214714      18.486685279932427      6.1622284266441421
   257   1       2.054076142214714      18.486685279932427      8.2163045688588561
   258   1       2.054076142214714      18.486685279932427      10.270380711073569
   259   1       2.054076142214714      18.486685279932427      12.324456853288282
   260   1       2.054076142214714      18.486685279932427      14.378532995502995
   261   1       2.054076142214714      18.486685279932427      16.432609137717712
   262   1       2.054076142214714      18.486685279932427      18.486685279932427
   263   1       2.054076142214714      18.486685279932427      20.540761422147138
   264   1       2.054076142214714      18.486685279932427      22.594837564361853
   265   1       2.054076142214714      20.540761422147138                       0
   266   1       2.054076142214714      20.540761422147138       2.054076142214714
   267   1       2.054076142214714      20.540761422147138       4.108152284429428
   268   1       2.054076142214714      20.540761422147138      6.1622284266441421
   269   1       2.054076142214714      20.540761422147138      8.2163045688588561
   270   1       2.054076142214714      20.540761422147138      10.270380711073569
   271   1       2.054076142214714      20.540761422147138      12.324456853288282
   272   1       2.054076142214714      20.540761422147138      14.378532995502995
   273   1       2.054076142214714      20.540761422147138      16.432609137717712
   274   1       2.054076142214714      20.540761422147138      18.486685279932427
   275   1       2.054076142214714      20.540761422147138      20.540761422147138
   276   1       2.054076142214714      20.540761422147138      22.594837564361853
   277   1       2.054076142214714      22.594837564361853                       0
   278   1       2.054076142214714      22.594837564361853       2.054076142214714
   279   1       2.054076142214714      22.594837564361853       4.108152284429428
   280   1       2.054076142214714      22.594837564361853      6.1622284266441421
   281   1       2.054076142214714      22.594837564361853      8.2163045688588561
   282   1       2.054076142214714      22.594837564361853      10.270380711073569
   283   1       2.054076142214714      22.594837564361853      12.324456853288282
   284   1       2.054076142214714      22.594837564361853      14.378532995502995
   285   1       2.054076142214714      22.594837564361853      16.432609137717712
   286   1       2.054076142214714      22.594837564361853      18.486685279932427
   287   1       2.054076142214714      22.594837564361853      20.540761422147138
   288   1       2.054076142214714      22.594837564361853      22.594837564361853
   289   1       4.108152284429428                       0                       0
   290   1       4.108152284429428                       0       2.054076142214714
   291   1       4.108152284429428                       0       4.108152284429428
   292   1       4.108152284429428                       0      6.1622284266441421
   293   1       4.108152284429428                       0      8.2163045688588561
   294   1       4.108152284429428                       0      10.270380711073569
   295   1       4.108152284429428                       0      12.324456853288282
   296   1       4.108152284429428                       0      14.378532995502995
   297   1       4.108152284429428                       0      16.432609137717712
   298   1       4.108152284429428                       0      18.486685279932427
   299   1       4.108152284429428                       0      20.540761422147138
   300   1       4.108152284429428                       0      22.594837564361853
   301   1       4.108152284429428       2.054076142214714                       0
   302   1       4.108152284429428       2.054076142214714       2.054076142214714
   303   1       4.108152284429428       2.054076142214714       4.108152284429428
   304   1       4.108152284429428       2.054076142214714      6.1622284266441421
   305   1       4.108152284429428       2.054076142214714      8.2163045688588561
   306   1       4.108152284429428       2.054076142214714      10.270380711073569
   307   1       4.108152284429428       2.054076142214714      12.324456853288282
   308   1       4.108152284429428       2.054076142214714      14.378532995502995
   309   1       4.108152284429428       2.054076142214714      16.432609137717712
   310   1       4.108152284429428       2.054076142214714      18.486685279932427
   311   1       4.108152284429428       2.054076142214714      20.540761422147138
   312   1       4.108152284429428       2.054076142214714      22.594837564361853
   313   1       4.108152284429428       4.108152284429428                       0
   314   1       4.108152284429428       4.108152284429428       2.054076142214714
   315   1       4.108152284429428       4.108152284429428       4.108152284429428
   316   1       4.108152284429428       4.108152284429428      6.1622284266441421
   317   1       4.108152284429428       4.108152284429428      8.2163045688588561
   318   1       4.108152284429428       4.108152284429428      10.270380711073569
   319   1       4.108152284429428       4.108152284429428      12.324456853288282
   320   1       4.108152284429428       4.108152284429428      14.378532995502995
   321   1       4.108152284429428       4.108152284429428      16.432609137717712
   322   1       4.108152284429428       4.108152284429428      18.486685279932427
   323   1       4.108152284429428       4.108152284429428      20.540761422147138
   324   1       4.108152284429428       4.108152284429428      22.594837564361853
   325   1       4.108152284429428      6.1622284266441421                       0
   326   1       4.108152284429428      6.1622284266441421       2.054076142214714
   327   1       4.108152284429428      6.1622284266441421       4.108152284429428
   328   1       4.108152284429428      6.1622284266441421      6.1622284266441421
   329   1       4.108152284429428      6.1622284266441421      8.2163045688588561
   330   1       4.108152284429428      6.1622284266441421      10.270380711073569
   331   1       4.108152284429428      6.1622284266441421      12.324456853288282
   332   1       4.108152284429428      6.1622284266441421      14.378532995502995
   333   1       4.108152284429428      6.1622284266441421      16.432609137717712
   334   1       4.108152284429428      6.1622284266441421      18.486685279932427
   335   1       4.108152284429428      6.1622284266441421      20.540761422147138
   336   1       4.108152284429428      6.1622284266441421      22.594837564361853
   337   1       4.108152284429428      8.2163045688588561                       0
   338   1       4.108152284429428      8.2163045688588561       2.054076142214714
   339   1       4.108152284429428      8.2163045688588561       4.108152284429428
   340   1       4.108152284429428      8.2163045688588561      6.1622284266441421
   341   1       4.108152284429428      8.2163045688588561      8.2163045688588561
   342   1       4.108152284429428      8.2163045688588561      10.270380711073569
   343   1       4.108152284429428      8.2163045688588561      12.324456853288282
   344   1       4.108152284429428      8.2163045688588561      14.378532995502995
   345   1       4.108152284429428      8.2163045688588561      16.432609137717712
   346   1       4.108152284429428      8.2163045688588561      18.486685279932427
   347   1       4.108152284429428      8.2163045688588561      20.540761422147138
   348   1       4.108152284429428      8.2163045688588561      22.594837564361853
   349   1       4.108152284429428      10.270380711073569                       0
   350   1       4.108152284429428      10.270380711073569       2.054076142214714
   351   1       4.108152284429428      10.270380711073569       4.108152284429428
   352   1       4.108152284429428      10.270380711073569      6.1622284266441421
   353   1       4.108152284429428      10.270380711073569      8.2163045688588561
   354   1       4.108152284429428      10.270380711073569      10.270380711073569
   355   1       4.108152284429428      10.270380711073569      12.324456853288282
   356   1       4.108152284429428      10.270380711073569      14.378532995502995
   357   1       4.108152284429428      10.270380711073569      16.432609137717712
   358   1       4.108152284429428      10.270380711073569      18.486685279932427
   359   1       4.108152284429428      10.270380711073569      20.540761422147138