-6.792940777099999650e+03
-6.795660163599999578e+03
-6.812984376800000064e+03
-6.825606972100000348e+03
-6.813133565600000111e+03
-6.773896560600000157e+03
-6.824527498999999807e+03
-6.791250418399999944e+03
-6.778233361399999922e+03
-6.800764123900000413e+03
-6.811079881700000442e+03
-6.794786772899999960e+03
-6.798869212499999776e+03
-6.798239066099999945e+03
-6.805376001599999654e+03
-6.811071636900000158e+03
-6.786190762600000198e+03
-6.793346235699999852e+03
-6.794429281499999888e+03
-6.811346332400000392e+03
-6.801518647400000191e+03
-6.772210210799999913e+03
-6.808393564599999991e+03
-6.808335144599999694e+03
-6.809897490100000141e+03
-6.812657457100000101e+03
-6.785852351599999565e+03
-6.798730927499999780e+03
-6.800090150299999550e+03
-6.788114504000000125e+03
-6.773059201199999734e+03
-6.803581184599999688e+03
-6.787133607599999777e+03
-6.812231265700000222e+03
-6.785021808299999975e+03
-6.776221268899999814e+03
-6.794685098199999629e+03
-6.824349961599999915e+03
-6.828297140599999693e+03
-6.777958990000000085e+03
-6.823279249999999593e+03
-6.779816770299999916e+03
-6.772630754900000284e+03
-6.813058798199999728e+03
-6.789656948499999999e+03
-6.797858653199999935e+03
-6.780816290099999605e+03
-6.803820336900000257e+03
-6.805202932600000167e+03
-6.787744547399999647e+03
-6.802037185999999565e+03
-6.799816369299999678e+03
-6.803400684799999908e+03
-6.803645659099999648e+03
-6.791172561999999743e+03
-6.804263784499999929e+03
-6.773290940099999716e+03
-6.803276992699999937e+03
-6.806112499400000161e+03
-6.801548186099999839e+03
-6.807026249800000187e+03
-6.772189744399999654e+03
-6.806767315699999926e+03
-6.798931631800000105e+03
-6.798561189400000330e+03
-6.798642450500000450e+03
-6.807638849199999640e+03
-6.803323697400000128e+03
-6.801127008200000091e+03
-6.826480475200000001e+03
