5.181503969999999848e-01 2.738095844999999806e-01 3.398207022999999993e-01 2.630016204099999921e+00 -5.686555881999999507e-01 2.151302026999999950e-01 -1.141265737799999958e+00 4.531370939000000098e-01 4.993931356999999904e-01 5.606649766000000312e-01 -3.005039864999999866e-01 -5.517714946999999759e-01 -1.299260901000000024e-01 -5.033178915999999559e-01 -1.580778586799999941e+00 9.518100242999999461e-01 -2.255388251000000066e-01 1.297973298000000053e+00 8.798244650000000555e-02 1.045789534799999920e+00 3.593392924000000099e-01 -1.132100958599999929e+00 -1.280227090699999959e+00 -7.024307413999999472e-01 -6.354819479999999909e-02 -1.752322486000000012e-01 6.903529900000000136e-03 1.587008202999999895e-01 -2.787399446000000114e-01 -1.143360137000000026e-01 -4.111627625000000008e-01 1.028399341999999966e-01 1.065333618699999985e+00 6.279775727999999946e-01 -2.330634722999999908e-01 -4.288874919999999813e-01 8.813878711999999505e-01 -6.486739510000000264e-02 -2.017394884799999843e+00 -4.373296120000000342e-02 -1.186754180000000082e-02 1.734777143699999913e+00 1.454112758900000024e+00 -7.793288773000000003e-01 1.580629926100000082e+00 -3.708291914999999883e-01 -6.203813156999999912e-01 -1.094784889000000039e-01 -9.395241722999999601e-01 6.830173000000000494e-01 -2.536323599600000200e+00 7.118221975999999840e-01 1.255369966900000023e+00 1.711456711899999927e+00 -3.438664779999999754e-01 1.355296417000000087e-01 8.549787849999999911e-02 -1.588014943000000123e-01 -3.580387799999999732e-02 3.958650810000000075e-01 -8.074783069999999507e-02 -1.668128989999999867e-01 5.545709210000000083e-02 -5.614162578000000403e-01 1.658900965000000005e-01 -1.006552255999999951e-01 -9.854976009000000481e-01 7.150838451000000040e-01 5.102288413000000133e-01 3.394436571000000180e-01 -1.639356299599999955e+00 1.121961206099999941e+00 4.171624241999999927e-01 6.439443180999999683e-01 5.467661735000000078e-01 -1.188842772999999936e-01 1.751237257000000103e-01 -2.451020149999999856e-02 -8.786836119999999473e-02 -9.164039763000000338e-01 -3.654693104999999775e-01 -4.048641399999999661e-03 7.790478915999999865e-01 9.290669927000000383e-01 7.343453520999999595e-01 1.062027000100000063e+00 -2.203394820000000032e-01 -2.713341886000000258e-01 8.299014120000000605e-02 -2.926366373000000021e-01 -1.813499000000000083e-01 -1.222597640899999893e+00 -2.217514056000000067e-01 1.091707603000000026e-01 1.179314275000000051e-01 -2.823719543000000054e-01 -5.460150578000000365e-01 3.049745979999999856e-01 4.260638017000000222e-01 4.285980428999999758e-01 -4.465799836000000078e-01 -1.342596808699999977e+00 -3.411717623000000144e-01 4.280491320000000266e-02 -1.449561849000000069e-01 -3.214851550999999752e-01 1.760961601400000021e+00 -1.947123226999999956e-01 4.975085691000000199e-01 -2.734270000000000016e-03 4.296197715999999778e-01 2.048830575299999790e+00 -1.115485776399999907e+00 -2.724185271600000124e+00 -3.961765611999999992e-01 -1.901889136899999944e+00 6.255280909999999528e-01 -1.186476834800000102e+00 6.988771603000000221e-01 -5.187402940000000046e-02 -1.734863370000000113e-02 -1.929459608299999962e+00 5.658750813999999796e-01 -5.560737824999999468e-01 -1.343250528400000032e+00 1.614947220999999988e+00 4.103186162999999942e-01 2.394858566999999994e-01 2.421179400000000002e-03 1.466628521999999990e-01 -1.698762843000000133e-01 1.256101880000000115e-01 7.409682038999999554e-01 -4.624826792999999769e-01 -1.626045589000000069e+00 1.797555669999999911e-02 8.817800370999999693e-01 2.253257102000000012e-01 7.461859460999999971e-01 1.893106275600000110e+00 1.033634789999999942e-01 -1.215245937999999970e-01 -2.919581213999999925e-01 -5.935773193000000170e-01 -5.524412208000000213e-01 9.883017347000000452e-01 2.394747237000000029e-01 -1.337270020999999920e-01 -1.401367897599999912e+00 8.525907060000000037e-02 -3.326969584999999729e-01 -1.159584748099999896e+00 -1.905845615500000090e+00 -3.605742651000000132e-01 5.124238024999999697e-01 -2.869045695999999923e-01 2.314826332500000028e+00 9.231260659000000146e-01 1.834397888000000032e-01 3.275957199999999982e-03 -1.537912119000000022e-01 2.102473058999999866e-01 -6.252935509999999475e-01 1.387020767100000107e+00 2.059214741499999946e+00 -3.562365969999999743e-02 -6.477860814000000467e-01 -3.763447395999999778e-01 4.002986232999999894e-01 1.936349118000000036e-01 -9.686834945000000197e-01 -3.463187904999999733e-01 -7.323364596000000448e-01 1.558997569999999964e-02 -1.889054360000000030e-02 -6.473017695999999654e-01 -1.387140791099999992e+00 -1.305157921099999951e+00 -1.127809732700000067e+00 2.124814980600000069e+00 -6.479568468999999942e-01 -1.452485908399999914e+00 -1.085896639999999955e-02 5.141842542000000238e-01 1.232400733299999995e+00 2.180223984999999920e-01 -1.423005923699999897e+00 1.186188684300000018e+00 -7.443203677999999934e-01 3.806427039999999984e-01 -8.408484322999999483e-01 7.010256361000000158e-01 4.066165875000000152e-01 6.143678687000000416e-01 -1.077103917000000050e-01 2.413869885000000104e-01 7.036069240000000224e-01 6.246999018000000126e-01 7.567383653000000487e-01 -1.477030822000000021e-01 6.976903398999999562e-01 -8.539913300999999457e-01 1.048844389799999943e+00 -1.364816067999999882e-01 -1.599384084999999900e-01 8.500950470000000203e-02 4.707488021999999828e-01 -4.681768477000000095e-01 -1.091026821700000093e+00 -4.662065863000000032e-01 1.347735583900000034e+00 1.657088033500000002e+00 2.150284325000000052e-01 -1.875169966000000132e-01 6.769040442000000546e-01 4.321947917999999778e-01 7.959463540000000226e-02 -7.249387650999999932e-01 -3.765430426999999969e-01 -7.327409651999999829e-01 -1.611941737700000044e+00 1.527891327999999938e+00 -6.198200420999999682e-01 -1.353003714999999885e-01 -1.849441072400000108e+00 4.770836158999999799e-01 -9.828958396000000430e-01 1.722822120000000012e+00 9.045935322000000500e-01 1.304267651500000014e+00 -1.923628187700000103e+00 -6.459506555999999788e-01 5.888297043000000341e-01 1.384076117800000061e+00 3.364565230000000073e-01 -8.983220056999999814e-01 -2.081339913999999958e-01 7.913705146999999718e-01 3.645994627999999960e-01 -4.570400620999999775e-01 -8.908790319999999874e-02 -1.150757898700000004e+00 -1.684571538499999965e+00 -1.236682713400000022e+00 -9.959832173999999538e-01 -1.234464387500000093e+00 -4.404548493000000065e-01 3.455292857000000217e-01 5.055175799999999699e-03 -8.189616868000000327e-01 1.275282198000000089e-01 1.080466144000000073e+00 -1.281144344100000110e+00 2.709273999999999849e-01 -2.839665983200000188e+00 -6.369794619999999408e-02 5.471841411000000210e-01 8.919890184000000000e-01 1.843252099999999949e+00 1.028682866900000104e+00 -3.478162189999999682e-02 4.457261380000000078e-02 8.429537444000000379e-01 -6.372254661999999792e-01 -1.249765860000000006e-01 9.283247452999999760e-01 2.145643881000000031e-01 -8.287882746000000411e-01 3.706160960000000060e-01 1.020416777799999952e+00 9.998359338000000207e-01 2.701405499999999862e-02 -7.857247214999999452e-01 -2.352804177899999960e+00 -7.093274951000000383e-01 3.398611261200000122e+00 1.420684227000000022e-01 8.338471492000000262e-01 1.044991462700000096e+00 2.174132043300000205e+00 -3.922713637999999947e-01 -3.181093925499999919e+00 -1.458887858000000037e-01 3.133748064999999916e-01 -9.059291650999999890e-01 -8.474236349999999529e-01 -4.596007810000000138e-01 6.692317480999999679e-01 -1.043218035999999987e-01 -1.332254604699999900e+00 -1.063504318899999967e+00 4.401921689999999804e-02 7.618693745000000295e-01 -3.986325707000000218e-01 5.832842139999999675e-01 1.650486725699999990e+00 1.915251232899999989e+00 -5.203085679000000185e-01 -2.084157570000000001e-02 1.331482881000000118e-01 3.536172183999999885e-01 -7.418593355999999472e-01 2.119644985999999953e-01 -2.090671699999999966e-01 -7.987783869999999509e-02 1.040366526000000014e-01 1.693238286000000037e-01 -1.243128469999999972e-02 -5.710577199999999909e-02 3.405413198999999724e-01 4.976006662999999941e-01 -6.199961276000000021e-01 -1.183820592600000055e+00 -6.712394662999999762e-01 -1.514528032000000135e-01 5.277550000000000296e-02 8.228633503000000182e-01 1.380794842400000055e+00 -6.289604430999999884e-01 -1.133540311999999967e-01 -6.414983778999999720e-01 -8.363356610000000080e-02 7.727161639999999831e-01 1.108960135000000014e-01
-2.052467678300000209e+00 -2.183802247999999946e-01 -2.446007808000000006e-01 -2.438945582000000001e-01 -4.592702343999999770e-01 5.899034022000000377e-01 -1.506596649999999982e-01 7.038271749999999716e-02 6.962179120999999471e-01 3.778005645999999995e-01 1.062927223500000018e+00 -1.378763800099999992e+00 1.162113877099999915e+00 -1.188158239000000060e-01 1.164679076000000091e+00 1.200224189100000061e+00 3.908767982999999946e-01 -5.619650606999999631e-01 6.622578636999999491e-01 -5.619596086000000490e-01 -8.140132641999999752e-01 -2.025934207800000220e+00 -1.124034127700000107e+00 7.500855579999999856e-01 5.671419071000000089e-01 1.357949308400000055e+00 -4.678144349000000202e-01 4.758381700000000047e-01 1.502800703999999932e-01 -3.087821820000000161e-02 9.677319989999999539e-01 3.291567020999999760e-01 1.257791904300000096e+00 6.050164617000000078e-01 -1.119457332599999910e+00 1.894584740000000017e-02 -6.984017751000000107e-01 -5.316293534999999570e-01 -2.358532361000000022e-01 -1.685384877299999973e+00 -2.471239645999999957e-01 -1.171249991999999907e+00 1.432349100000000069e-02 2.001664580999999998e-01 2.620036210000000199e-01 -2.733986046999999919e-01 1.436827039500000014e+00 -2.106462567000000063e-01 8.501977419999999785e-01 6.514059719999999720e-02 -7.718097224000000089e-01 -1.758744134999999931e-01 8.776805403999999866e-01 4.404422399999999987e-02 2.334343949999999890e-01 8.469848584000000402e-01 -4.487288199999999727e-01 8.733143461000000274e-01 -7.151723027999999927e-01 -8.363766194999999737e-01 7.045749317999999706e-01 -3.350532051999999816e-01 1.489610034000000138e-01 2.554800718999999942e-01 1.631428878399999949e+00 5.940612738999999642e-01 -3.690243264999999995e-01 -5.857635820000000049e-01 5.026104099999999589e-03 3.155958331000000006e-01 -9.270981838999999836e-01 -7.946064657000000420e-01 2.933660229000000230e-01 -4.215718618000000029e-01 2.489433420000000119e-01 1.180649099000000007e-01 -1.471892221999999972e-01 -2.777160471999999825e-01 -1.270871820200000002e+00 -2.605162520000000037e-01 -6.124103288000000145e-01 1.522024162399999936e+00 2.459857713999999973e-01 7.265775415999999876e-01 7.049892771000000335e-01 1.477773613899999949e+00 -1.268585064899999892e+00 1.642785834999999972e+00 2.985271407000000266e-01 -1.164984363100000087e+00 4.921110200000000309e-03 -1.291158105000000111e-01 2.060971762999999901e-01 1.878189895000000054e-01 -1.113273714900000044e+00 5.526252482000000299e-01 7.842135635000000438e-01 -9.962018178999999529e-01 -4.444733625000000243e-01 -8.762163488999999972e-01 5.753288656999999695e-01 -3.624020112999999932e-01 -3.190847256000000076e-01 9.277430787999999540e-01 8.921693366999999819e-01 -6.830566882999999923e-01 1.498891246999999871e-01 -1.833434693000000060e-01 8.913432048999999635e-01 -7.644963262999999731e-01 4.427343102999999891e-01 3.393025055000000179e-01 1.826133853999999945e-01 -6.847348820000000169e-02 -9.699264223000000351e-01 8.918253487999999729e-01 5.297900217000000023e-01 -2.182193155999999912e-01 -9.776440479999999600e-02 -8.672655179999999575e-02 5.879103771999999450e-01 -2.150973189999999882e-02 -9.581222670000000274e-01 1.211423132000000041e-01 -2.690303787000000169e-01 2.858262906999999853e-01 1.187777827099999906e+00 2.266452180199999944e+00 -1.718461940100000085e+00 1.437523567000000002e-01 6.818880963000000239e-01 5.117707196999999875e-01 -1.581592569799999959e+00 -3.786722948999999838e-01 8.338216807999999647e-01 1.504946568999999956e-01 -2.406818411999999963e-01 -1.526808712999999929e-01 6.719854640000000323e-02 -3.724916569999999760e-01 -2.742043755999999943e-01 2.900588508999999982e-01 5.649395137999999594e-01 -7.376919734000000339e-01 -3.262796664000000013e-01 9.917157020000000323e-02 9.072555991999999847e-01 8.474463619000000003e-01 1.051662936999999964e-01 -3.184580759999999788e-01 -2.097615311999999899e-01 -6.715345359999999597e-02 3.267016994999999979e-01 -1.643894968699999959e+00 -1.144377989999999956e+00 2.137732189999999935e-02 -7.637346818000000370e-01 -7.662838201999999654e-01 7.748066070000000360e-01 2.438047750000000083e-02 1.022695099999999940e-01 1.943884448499999973e+00 -3.416562714999999972e-01 -7.821866357000000214e-01 2.567106472999999833e-01 1.225041961599999896e+00 6.077099471000000364e-01 7.346621790999999790e-01 1.412426290000000015e-02 -1.592795166000000040e-01 5.753825489999999654e-01 5.876553373999999774e-01 1.869215563900000099e+00 7.525503610999999538e-01 5.084531362999999970e-01 -1.033636850199999957e+00 1.419559923000000001e-01 2.501355426999999909e-01 -9.839051520999999578e-01 -1.799074808300000106e+00 -5.199238545000000045e-01 9.046163863999999721e-01 3.318999555000000101e-01 -7.207844085000000289e-01 7.048085971999999977e-01 1.054700385000000018e-01 5.436110859999999934e-02 8.585155040000000404e-02 1.796040560999999924e-01 -3.409103806000000070e-01 -2.735200150000000052e-01 1.752135592999999991e+00 -2.099372751999999842e+00 -1.156057039500000050e+00 1.016919607599999997e+00 -3.442528179000000077e-01 4.173843776000000227e-01 1.228311896599999953e+00 -5.704843962000000213e-01 -1.993521699500000022e+00 -1.323356543400000085e+00 -6.996063173000000024e-01 5.139819785000000474e-01 -1.546355094000000097e-01 -7.743963239999999970e-02 -8.392483818000000539e-01 -1.292959028000000066e+00 -1.000670542999999996e-01 -3.820347810000000038e-02 -3.724369699999999783e-01 -8.599327808000000184e-01 1.008992956299999966e+00 2.001492617899999882e+00 4.093340322999999836e-01 8.686705819000000162e-01 -1.294394512300000022e+00 -1.218935373699999936e+00 -1.399520478999999873e-01 -4.850546557000000036e-01 -1.815277791500000015e+00 -5.255118649999999947e-02 2.073466549999999908e-01 1.658255249800000053e+00 1.724699456900000039e+00 -1.255525346600000036e+00 -9.093330611000000063e-01 -8.851967968999999714e-01 -3.434741399999999834e-01 3.565986949999999656e-02 -4.981780789999999681e-02 -1.126135158999999941e+00 -6.153357780000000277e-02 1.569712648000000099e-01 1.760027775999999933e-01 8.260770213999999445e-01 -4.051899169000000023e-01 3.810505547999999965e-01 5.706902149999999452e-01 -6.079096205999999780e-01 8.740246956999999650e-01 -1.164443079600000042e+00 -1.964544686700000042e+00 5.762316705000000150e-01 1.872768997699999938e+00 9.344378275000000400e-01 3.554487071999999914e-01 -1.267936049500000051e+00 -6.355411890000000064e-01 -8.239014091999999900e-01 3.339918051999999915e-01 1.551009261999999889e-01 -2.931608524000000049e-01 4.782413028999999982e-01 -2.661663477000000277e-01 2.502168603000000102e-01 -7.506520576999999861e-01 -1.784944099999999931e-03 -8.977828107999999974e-01 7.270139389999999424e-02 3.624173018999999885e-01 1.355209051000000053e-01 -2.458748124000000035e-01 -6.762104359999999703e-01 -2.220102207000000105e-01 -6.833434634999999702e-01 -1.032198723000000040e+00 -9.601619528000000514e-01 1.098965801999999964e-01 5.200572098000000310e-01 2.077854200000000054e-02 1.843359692399999972e+00 2.713488792000000038e-01 -1.115758873299999898e+00 7.342318320999999814e-01 -3.492581100000000105e-02 6.998244125000000482e-01 1.361595277099999945e+00 -1.671910839399999960e+00 2.124425063899999966e+00 1.328191213900000056e+00 1.000417137999999984e+00 8.853851392999999570e-01 -5.931416581999999771e-01 5.636012789000000023e-01 -5.210669439999999764e-01 -4.952740908000000108e-01 -1.187326845000000075e+00 -6.298361332999999895e-01 1.594548501999999979e-01 -1.424472595000000064e-01 8.397484027999999601e-01 2.425984788999999975e-01 2.403051076999999924e-01 -2.044345339999999872e-02 -8.440796499999999591e-01 -2.584377640000000073e-02 6.213479603999999545e-01 3.175048697999999781e-01 -5.637331510999999962e-01 -1.343227361000000064e-01 6.469216664000000394e-01 -2.944615368999999871e-01 -9.289852844000000553e-01 1.271906677000000097e-01 1.046031675200000066e+00 -1.788689528000000084e-01 -2.691900311000000046e-01 1.978374512999999946e-01 -1.225506658999999943e-01 3.471188850999999964e-01 3.743029480000000242e-01 2.151828175000000121e-01 -3.768410636999999785e-01 1.758292556999999923e-01 -1.912670251999999960e-01 -2.291862601000000110e-01 9.139061930000000333e-02 1.628465202999999917e-01 -8.237190385999999531e-01 2.154722749000000104e-01 7.475475198000000043e-01 -3.287218724000000036e-01 3.053297250000000171e-02 -2.921120799999999979e-03
-1.197779049600000034e+00 -2.888369579999999992e+00 2.445133050000000002e-02 7.912380176000000098e-01 -3.274571792000000037e-01 1.889507870000000089e-01 2.280607839999999886e-02 -1.112504291400000067e+00 6.993257461999999869e-01 1.503139449200000088e+00 3.034549656099999826e+00 -4.969068608000000165e-01 4.682896000000000281e-02 -4.960420973999999927e-01 4.278091482999999973e-01 -2.549761959300000047e+00 -8.552446297000000364e-01 2.443356800000000099e-03 1.554105594999999895e-01 -8.450747416999999650e-01 -5.649709582999999924e-01 1.301745990899999983e+00 -1.030706567399999996e+00 -1.297673735000000050e-01 4.906447680000000089e-01 -2.388277413999999876e-01 -1.480638114700000063e+00 5.031813404999999628e-01 -2.492135652400000012e+00 1.451843620800000068e+00 -3.455392072999999842e-01 8.997745958999999738e-01 -6.721681136999999584e-01 -3.835220563999999777e-01 7.164996367999999505e-01 1.068957736100000000e+00 -3.095668926999999848e-01 1.085258587100000005e+00 1.374149267900000027e+00 -2.030062515999999928e-01 -6.633651432999999598e-01 5.010343988000000026e-01 -1.870349142300000045e+00 1.046413581399999959e+00 -6.568587769000000520e-01 -4.299900802000000133e-01 7.859063144000000278e-01 -6.672408495999999634e-01 7.706875761999999463e-01 -7.937350106999999655e-01 -5.102545708000000291e-01 -3.364547178000000249e-01 2.005385983999999899e-01 -1.385024792899999913e+00 1.420727573600000015e+00 1.796467539300000027e+00 8.238301203000000239e-01 6.222686283999999679e-01 -2.961626037000000267e-01 4.784499584999999944e-01 -4.616086265000000077e-01 4.629647521999999960e-01 -2.928199435099999803e+00 -4.646208694000000250e-01 -4.781451138000000212e-01 1.399457291600000097e+00 -6.000179799999999855e-03 6.020953296000000066e-01 8.194194080000000158e-02 4.153885251000000167e-01 -8.606327791000000227e-01 -1.258149102500000005e+00 6.338849300000000235e-03 -9.976771834000000005e-01 5.266427711000000178e-01 9.281056819999999874e-01 8.046062362000000467e-01 3.598782429999999866e-01 1.013373381999999934e+00 -5.686228972000000326e-01 1.864420175000000013e-01 5.359547901000000225e-01 1.348233586499999914e+00 -1.499891460600000004e+00 -8.279974770000000373e-01 7.274458209999999647e-02 4.000464369000000242e-01 1.228616108000000068e-01 2.491425755999999991e-01 8.528699880000000233e-01 3.987997576000000266e-01 3.356167520000000182e-02 1.420303348500000062e+00 6.212154411000000431e-01 5.069830548999999520e-01 4.843473683999999779e-01 6.312387350999999480e-01 5.561887672999999976e-01 -7.961616233999999626e-01 -1.337287704000000021e-01 3.767707854999999828e-01 2.370134990000000164e-02 -1.098267772000000031e-01 1.820573371700000109e+00 1.563157625499999925e+00 7.635907240999999512e-01 -1.204125608900000088e+00 -1.202040803100000055e+00 1.471494194299999947e+00 -5.044312717000000168e-01 4.700704754000000207e-01 1.731137635599999891e+00 -7.710574355999999518e-01 -1.388364588999999871e-01 -1.100346016000000038e-01 7.646854575999999515e-01 1.699760537999999988e-01 -8.231898297999999947e-01 -1.446780232000000055e-01 1.764168464599999986e+00 -3.686978229000000273e-01 8.262147213999999629e-01 -8.067304256999999756e-01 9.807769099999999463e-02 -2.294171335000000089e-01 -4.889130297000000014e-01 -1.859445822999999942e-01 -1.352768642999999937e-01 2.834325724999999796e-01 -1.437094486999999976e+00 1.245472687699999970e+00 -5.881974108999999951e-01 1.779750930000000009e-01 -1.726811870000000138e-02 -2.387548901000000057e-01 -1.031756550799999950e+00 2.123946676000000033e-01 3.783333710000000294e-02 1.522969728999999939e-01 3.482893490999999786e-01 1.722716001000000052e-01 -4.292557013000000143e-01 -9.887631389999999854e-02 2.538589969999999890e-02 -4.414579049999999838e-01 -1.302866501900000085e+00 2.558148672000000179e-01 -5.089474410000000004e-02 9.475819200000000497e-02 -2.146236726000000095e-01 9.886502176000000475e-01 1.327140581000000041e-01 -4.913037987000000162e-01 1.017828608399999890e+00 -1.750619207800000021e+00 -1.165197664999999966e-01 3.166456664999999782e-01 5.722158352999999753e-01 1.020226444600000004e+00 -4.999161377999999933e-01 -4.506891118999999946e-01 -2.583451988000000088e-01 8.382594383999999454e-01 3.850763521000000189e-01 3.599498646000000024e-01 -3.546590530000000296e-02 -9.299114290000000116e-01 6.820434756000000043e-01 3.380775479999999916e-02 -5.182499271999999602e-01 -1.348892336900000100e+00 7.111399867000000041e-01 -9.276685658000000112e-01 -2.560543451000000248e-01 1.434622468099999937e+00 -4.587185241000000246e-01 -1.008775439000000052e-01 4.046058121000000174e-01 8.489917005999999544e-01 3.412829265999999806e-01 -1.655955425299999950e+00 6.669859860000000307e-01 -2.604277721499999920e+00 -1.615451985800000045e+00 1.137096393200000000e+00 7.355696065000000283e-01 2.003566048200000171e+00 -8.162937679999999752e-01 9.994551274999999846e-01 -7.238845779000000480e-01 -1.792023085200000088e+00 1.580073267000000059e-01 -9.864706132999999655e-01 -1.851389375999999976e-01 5.388796852999999665e-01 -6.102112873999999687e-01 7.018789162999999887e-01 -1.575584110000000093e-02 4.242721745999999960e-01 -7.197599145999999948e-01 7.645982519999999782e-02 -8.057578289000000282e-01 7.131362614999999794e-01 3.311316006999999728e-01 -8.016183719999999679e-01 3.002013135000000110e-01 3.739917460000000138e-02 4.140745436000000113e-01 -1.011550463000000066e+00 -1.360335366000000046e-01 -7.111559720000000528e-02 -5.406409964999999707e-01 4.558178949000000202e-01 -2.309921842000000058e-01 7.510826940000000507e-01 5.171651792000000469e-01 -8.869252751999999740e-01 3.071106685400000202e+00 -6.835442372000000155e-01 -1.481402749099999916e+00 -2.051703109800000036e+00 8.693175451000000331e-01 6.210649032999999708e-01 9.625227121999999635e-01 2.067849847999999824e+00 -1.350690232000000046e+00 8.544461480999999692e-01 -4.403316889000000178e-01 1.505566604300000000e+00 -7.688443828000000035e-01 1.147126809999999934e-02 8.825278828999999492e-01 -1.060023551999999952e-01 -1.403396943999999924e-01 -9.168444597999999557e-01 5.830895098999999693e-01 3.308747201000000193e-01 -3.543671620000000133e-01 -1.194875358000000026e-01 1.572617668000000080e-01 -8.726518340000000151e-02 -3.604567560000000032e-02 6.178941635000000376e-01 1.283317506499999983e+00 -4.896220216000000125e-01 -1.496758251499999970e+00 -6.356532803000000120e-01 1.402983705700000083e+00 1.831434162799999932e+00 -5.747921492999999993e-01 7.709116459000000532e-01 7.162470020000000215e-02 -4.519226654999999870e-01 1.030116769199999949e+00 -2.064070179999999977e-01 -7.918843479999999602e-01 -5.407149309999999959e-02 -1.198764521800000038e+00 1.068650493400000068e+00 1.917323460199999996e+00 -4.817506502000000190e-01 3.444146129999999667e-02 -4.425122452999999956e-01 4.202242720000000098e-01 -7.449456298000000087e-01 -2.987327169999999810e-01 7.704789120999999685e-01 -2.657731445000000026e-01 -1.344170300000000103e-03 -4.934001250000000227e-01 8.690885897000000249e-01 -9.539079328999999774e-01 5.069048465000000059e-01 -5.866423686999999720e-01 1.057592400000000099e+00 -2.846883110000000133e-02 1.701453929999999920e-02 3.532043611999999833e-01 3.718508021999999968e-01 -7.696684202000000363e-01 5.688632560000000254e-02 4.231520648000000051e-01 -7.817171452000000187e-01 1.786729462999999962e-01 2.621170650999999907e-01 -8.165135049999999728e-02 -2.237401483699999805e+00 7.757564032999999526e-01 5.554081816999999477e-01 -4.119267757000000252e-01 6.372077178999999703e-01 -1.491605986299999964e+00 8.255574990000000279e-02 -2.429029771000000004e-01 6.394793733000000424e-01 7.411994127000000043e-01 -5.761949339999999919e-02 5.524359798000000321e-01 -1.260846462399999979e+00 -2.836359245500000181e+00 6.959845393000000380e-01 -1.658930562599999936e+00 -1.918276869999999829e-02 5.534299339999999567e-01 6.923702773000000033e-01 -1.502007972199999930e+00 -6.125451280000000498e-01 9.715607455000000447e-01 -2.601803912499999871e+00 1.211093273999999942e-01 -8.931885189999999586e-02 1.853368230000000116e-01 9.018985075000000018e-01 -7.122004805999999633e-01 1.499022416000000135e-01 4.959406537000000115e-01 1.975670870000000023e-02 -3.859131129999999743e-01 -2.990704585999999776e-01 1.006006041900000092e+00 1.243892385599999928e+00 -3.710738883999999960e-01 -7.059107479999999768e-01 -6.089836503000000123e-01