rho10.7-444.lmp (written by ASE) 

64 	 atoms 
1  atom types
0.0      8.2163045688588561  xlo xhi
0.0      8.2163045688588561  ylo yhi
0.0      8.2163045688588561  zlo zhi


Atoms 

     1   1                       0                       0                       0
     2   1                       0                       0       2.054076142214714
     3   1                       0                       0      4.1081522844294271
     4   1                       0                       0      6.1622284266441421
     5   1                       0       2.054076142214714                       0
     6   1                       0       2.054076142214714       2.054076142214714
     7   1                       0       2.054076142214714      4.1081522844294271
     8   1                       0       2.054076142214714      6.1622284266441421
     9   1                       0      4.1081522844294271                       0
    10   1                       0      4.1081522844294271       2.054076142214714
    11   1                       0      4.1081522844294271      4.1081522844294271
    12   1                       0      4.1081522844294271      6.1622284266441421
    13   1                       0      6.1622284266441421                       0
    14   1                       0      6.1622284266441421       2.054076142214714
    15   1                       0      6.1622284266441421      4.1081522844294271
    16   1                       0      6.1622284266441421      6.1622284266441421
    17   1       2.054076142214714                       0                       0
    18   1       2.054076142214714                       0       2.054076142214714
    19   1       2.054076142214714                       0      4.1081522844294271
    20   1       2.054076142214714                       0      6.1622284266441421
    21   1       2.054076142214714       2.054076142214714                       0
    22   1       2.054076142214714       2.054076142214714       2.054076142214714
    23   1       2.054076142214714       2.054076142214714      4.1081522844294271
    24   1       2.054076142214714       2.054076142214714      6.1622284266441421
    25   1       2.054076142214714      4.1081522844294271                       0
    26   1       2.054076142214714      4.1081522844294271       2.054076142214714
    27   1       2.054076142214714      4.1081522844294271      4.1081522844294271
    28   1       2.054076142214714      4.1081522844294271      6.1622284266441421
    29   1       2.054076142214714      6.1622284266441421                       0
    30   1       2.054076142214714      6.1622284266441421       2.054076142214714
    31   1       2.054076142214714      6.1622284266441421      4.1081522844294271
    32   1       2.054076142214714      6.1622284266441421      6.1622284266441421
    33   1      4.1081522844294271                       0                       0
    34   1      4.1081522844294271                       0       2.054076142214714
    35   1      4.1081522844294271                       0      4.1081522844294271
    36   1      4.1081522844294271                       0      6.1622284266441421
    37   1      4.1081522844294271       2.054076142214714                       0
    38   1      4.1081522844294271       2.054076142214714       2.054076142214714
    39   1      4.1081522844294271       2.054076142214714      4.1081522844294271
    40   1      4.1081522844294271       2.054076142214714      6.1622284266441421
    41   1      4.1081522844294271      4.1081522844294271                       0
    42   1      4.1081522844294271      4.1081522844294271       2.054076142214714
    43   1      4.1081522844294271      4.1081522844294271      4.1081522844294271
    44   1      4.1081522844294271      4.1081522844294271      6.1622284266441421
    45   1      4.1081522844294271      6.1622284266441421                       0
    46   1      4.1081522844294271      6.1622284266441421       2.054076142214714
    47   1      4.1081522844294271      6.1622284266441421      4.1081522844294271
    48   1      4.1081522844294271      6.1622284266441421      6.1622284266441421
    49   1      6.1622284266441421                       0                       0
    50   1      6.1622284266441421                       0       2.054076142214714
    51   1      6.1622284266441421                       0      4.1081522844294271
    52   1      6.1622284266441421                       0      6.1622284266441421
    53   1      6.1622284266441421       2.054076142214714                       0
    54   1      6.1622284266441421       2.054076142214714       2.054076142214714
    55   1      6.1622284266441421       2.054076142214714      4.1081522844294271
    56   1      6.1622284266441421       2.054076142214714      6.1622284266441421
    57   1      6.1622284266441421      4.1081522844294271                       0
    58   1      6.1622284266441421      4.1081522844294271       2.054076142214714
    59   1      6.1622284266441421      4.1081522844294271      4.1081522844294271
    60   1      6.1622284266441421      4.1081522844294271      6.1622284266441421
    61   1      6.1622284266441421      6.1622284266441421                       0
    62   1      6.1622284266441421      6.1622284266441421       2.054076142214714
    63   1      6.1622284266441421      6.1622284266441421      4.1081522844294271
    64   1      6.1622284266441421      6.1622284266441421      6.1622284266441421
