rho10.7-888.lmp (written by ASE) 

512 	 atoms 
1  atom types
0.0      16.432609137717712  xlo xhi
0.0      16.432609137717712  ylo yhi
0.0      16.432609137717712  zlo zhi


Atoms 

     1   1                       0                       0                       0
     2   1                       0                       0       2.054076142214714
     3   1                       0                       0       4.108152284429428
     4   1                       0                       0      6.1622284266441421
     5   1                       0                       0      8.2163045688588543
     6   1                       0                       0      10.270380711073571
     7   1                       0                       0      12.324456853288284
     8   1                       0                       0      14.378532995502995
     9   1                       0       2.054076142214714                       0
    10   1                       0       2.054076142214714       2.054076142214714
    11   1                       0       2.054076142214714       4.108152284429428
    12   1                       0       2.054076142214714      6.1622284266441421
    13   1                       0       2.054076142214714      8.2163045688588543
    14   1                       0       2.054076142214714      10.270380711073571
    15   1                       0       2.054076142214714      12.324456853288284
    16   1                       0       2.054076142214714      14.378532995502995
    17   1                       0       4.108152284429428                       0
    18   1                       0       4.108152284429428       2.054076142214714
    19   1                       0       4.108152284429428       4.108152284429428
    20   1                       0       4.108152284429428      6.1622284266441421
    21   1                       0       4.108152284429428      8.2163045688588543
    22   1                       0       4.108152284429428      10.270380711073571
    23   1                       0       4.108152284429428      12.324456853288284
    24   1                       0       4.108152284429428      14.378532995502995
    25   1                       0      6.1622284266441421                       0
    26   1                       0      6.1622284266441421       2.054076142214714
    27   1                       0      6.1622284266441421       4.108152284429428
    28   1                       0      6.1622284266441421      6.1622284266441421
    29   1                       0      6.1622284266441421      8.2163045688588543
    30   1                       0      6.1622284266441421      10.270380711073571
    31   1                       0      6.1622284266441421      12.324456853288284
    32   1                       0      6.1622284266441421      14.378532995502995
    33   1                       0      8.2163045688588543                       0
    34   1                       0      8.2163045688588543       2.054076142214714
    35   1                       0      8.2163045688588543       4.108152284429428
    36   1                       0      8.2163045688588543      6.1622284266441421
    37   1                       0      8.2163045688588543      8.2163045688588543
    38   1                       0      8.2163045688588543      10.270380711073571
    39   1                       0      8.2163045688588543      12.324456853288284
    40   1                       0      8.2163045688588543      14.378532995502995
    41   1                       0      10.270380711073571                       0
    42   1                       0      10.270380711073571       2.054076142214714
    43   1                       0      10.270380711073571       4.108152284429428
    44   1                       0      10.270380711073571      6.1622284266441421
    45   1                       0      10.270380711073571      8.2163045688588543
    46   1                       0      10.270380711073571      10.270380711073571
    47   1                       0      10.270380711073571      12.324456853288284
    48   1                       0      10.270380711073571      14.378532995502995
    49   1                       0      12.324456853288284                       0
    50   1                       0      12.324456853288284       2.054076142214714
    51   1                       0      12.324456853288284       4.108152284429428
    52   1                       0      12.324456853288284      6.1622284266441421
    53   1                       0      12.324456853288284      8.2163045688588543
    54   1                       0      12.324456853288284      10.270380711073571
    55   1                       0      12.324456853288284      12.324456853288284
    56   1                       0      12.324456853288284      14.378532995502995
    57   1                       0      14.378532995502995                       0
    58   1                       0      14.378532995502995       2.054076142214714
    59   1                       0      14.378532995502995       4.108152284429428
    60   1                       0      14.378532995502995      6.1622284266441421
    61   1                       0      14.378532995502995      8.2163045688588543
    62   1                       0      14.378532995502995      10.270380711073571
    63   1                       0      14.378532995502995      12.324456853288284
    64   1                       0      14.378532995502995      14.378532995502995
    65   1       2.054076142214714                       0                       0
    66   1       2.054076142214714                       0       2.054076142214714
    67   1       2.054076142214714                       0       4.108152284429428
    68   1       2.054076142214714                       0      6.1622284266441421
    69   1       2.054076142214714                       0      8.2163045688588543
    70   1       2.054076142214714                       0      10.270380711073571
    71   1       2.054076142214714                       0      12.324456853288284
    72   1       2.054076142214714                       0      14.378532995502995
    73   1       2.054076142214714       2.054076142214714                       0
    74   1       2.054076142214714       2.054076142214714       2.054076142214714
    75   1       2.054076142214714       2.054076142214714       4.108152284429428
    76   1       2.054076142214714       2.054076142214714      6.1622284266441421
    77   1       2.054076142214714       2.054076142214714      8.2163045688588543
    78   1       2.054076142214714       2.054076142214714      10.270380711073571
    79   1       2.054076142214714       2.054076142214714      12.324456853288284
    80   1       2.054076142214714       2.054076142214714      14.378532995502995
    81   1       2.054076142214714       4.108152284429428                       0
    82   1       2.054076142214714       4.108152284429428       2.054076142214714
    83   1       2.054076142214714       4.108152284429428       4.108152284429428
    84   1       2.054076142214714       4.108152284429428      6.1622284266441421
    85   1       2.054076142214714       4.108152284429428      8.2163045688588543
    86   1       2.054076142214714       4.108152284429428      10.270380711073571
    87   1       2.054076142214714       4.108152284429428      12.324456853288284
    88   1       2.054076142214714       4.108152284429428      14.378532995502995
    89   1       2.054076142214714      6.1622284266441421                       0
    90   1       2.054076142214714      6.1622284266441421       2.054076142214714
    91   1       2.054076142214714      6.1622284266441421       4.108152284429428
    92   1       2.054076142214714      6.1622284266441421      6.1622284266441421
    93   1       2.054076142214714      6.1622284266441421      8.2163045688588543
    94   1       2.054076142214714      6.1622284266441421      10.270380711073571
    95   1       2.054076142214714      6.1622284266441421      12.324456853288284
    96   1       2.054076142214714      6.1622284266441421      14.378532995502995
    97   1       2.054076142214714      8.2163045688588543                       0
    98   1       2.054076142214714      8.2163045688588543       2.054076142214714
    99   1       2.054076142214714      8.2163045688588543       4.108152284429428
   100   1       2.054076142214714      8.2163045688588543      6.1622284266441421
   101   1       2.054076142214714      8.2163045688588543      8.2163045688588543
   102   1       2.054076142214714      8.2163045688588543      10.270380711073571
   103   1       2.054076142214714      8.2163045688588543      12.324456853288284
   104   1       2.054076142214714      8.2163045688588543      14.378532995502995
   105   1       2.054076142214714      10.270380711073571                       0
   106   1       2.054076142214714      10.270380711073571       2.054076142214714
   107   1       2.054076142214714      10.270380711073571       4.108152284429428
   108   1       2.054076142214714      10.270380711073571      6.1622284266441421
   109   1       2.054076142214714      10.270380711073571      8.2163045688588543
   110   1       2.054076142214714      10.270380711073571      10.270380711073571
   111   1       2.054076142214714      10.270380711073571      12.324456853288284
   112   1       2.054076142214714      10.270380711073571      14.378532995502995
   113   1       2.054076142214714      12.324456853288284                       0
   114   1       2.054076142214714      12.324456853288284       2.054076142214714
   115   1       2.054076142214714      12.324456853288284       4.108152284429428
   116   1       2.054076142214714      12.324456853288284      6.1622284266441421
   117   1       2.054076142214714      12.324456853288284      8.2163045688588543
   118   1       2.054076142214714      12.324456853288284      10.270380711073571
   119   1       2.054076142214714      12.324456853288284      12.324456853288284
   120   1       2.054076142214714      12.324456853288284      14.378532995502995
   121   1       2.054076142214714      14.378532995502995                       0
   122   1       2.054076142214714      14.378532995502995       2.054076142214714
   123   1       2.054076142214714      14.378532995502995       4.108152284429428
   124   1       2.054076142214714      14.378532995502995      6.1622284266441421
   125   1       2.054076142214714      14.378532995502995      8.2163045688588543
   126   1       2.054076142214714      14.378532995502995      10.270380711073571
   127   1       2.054076142214714      14.378532995502995      12.324456853288284
   128   1       2.054076142214714      14.378532995502995      14.378532995502995
   129   1       4.108152284429428                       0                       0
   130   1       4.108152284429428                       0       2.054076142214714
   131   1       4.108152284429428                       0       4.108152284429428
   132   1       4.108152284429428                       0      6.1622284266441421
   133   1       4.108152284429428                       0      8.2163045688588543
   134   1       4.108152284429428                       0      10.270380711073571
   135   1       4.108152284429428                       0      12.324456853288284
   136   1       4.108152284429428                       0      14.378532995502995
   137   1       4.108152284429428       2.054076142214714                       0
   138   1       4.108152284429428       2.054076142214714       2.054076142214714
   139   1       4.108152284429428       2.054076142214714       4.108152284429428
   140   1       4.108152284429428       2.054076142214714      6.1622284266441421
   141   1       4.108152284429428       2.054076142214714      8.2163045688588543
   142   1       4.108152284429428       2.054076142214714      10.270380711073571
   143   1       4.108152284429428       2.054076142214714      12.324456853288284
   144   1       4.108152284429428       2.054076142214714      14.378532995502995
   145   1       4.108152284429428       4.108152284429428                       0
   146   1       4.108152284429428       4.108152284429428       2.054076142214714
   147   1       4.108152284429428       4.108152284429428       4.108152284429428
   148   1       4.108152284429428       4.108152284429428      6.1622284266441421
   149   1       4.108152284429428       4.108152284429428      8.2163045688588543
   150   1       4.108152284429428       4.108152284429428      10.270380711073571
   151   1       4.108152284429428       4.108152284429428      12.324456853288284
   152   1       4.108152284429428       4.108152284429428      14.378532995502995
   153   1       4.108152284429428      6.1622284266441421                       0
   154   1       4.108152284429428      6.1622284266441421       2.054076142214714
   155   1       4.108152284429428      6.1622284266441421       4.108152284429428
   156   1       4.108152284429428      6.1622284266441421      6.1622284266441421
   157   1       4.108152284429428      6.1622284266441421      8.2163045688588543
   158   1       4.108152284429428      6.1622284266441421      10.270380711073571
   159   1       4.108152284429428      6.1622284266441421      12.324456853288284
   160   1       4.108152284429428      6.1622284266441421      14.378532995502995
   161   1       4.108152284429428      8.2163045688588543                       0
   162   1       4.108152284429428      8.2163045688588543       2.054076142214714
   163   1       4.108152284429428      8.2163045688588543       4.108152284429428
   164   1       4.108152284429428      8.2163045688588543      6.1622284266441421
   165   1       4.108152284429428      8.2163045688588543      8.2163045688588543
   166   1       4.108152284429428      8.2163045688588543      10.270380711073571
   167   1       4.108152284429428      8.2163045688588543      12.324456853288284
   168   1       4.108152284429428      8.2163045688588543      14.378532995502995
   169   1       4.108152284429428      10.270380711073571                       0
   170   1       4.108152284429428      10.270380711073571       2.054076142214714
   171   1       4.108152284429428      10.270380711073571       4.108152284429428
   172   1       4.108152284429428      10.270380711073571      6.1622284266441421
   173   1       4.108152284429428      10.270380711073571      8.2163045688588543
   174   1       4.108152284429428      10.270380711073571      10.270380711073571
   175   1       4.108152284429428      10.270380711073571      12.324456853288284
   176   1       4.108152284429428      10.270380711073571      14.378532995502995
   177   1       4.108152284429428      12.324456853288284                       0
   178   1       4.108152284429428      12.324456853288284       2.054076142214714
   179   1       4.108152284429428      12.324456853288284       4.108152284429428
   180   1       4.108152284429428      12.324456853288284      6.1622284266441421
   181   1       4.108152284429428      12.324456853288284      8.2163045688588543
   182   1       4.108152284429428      12.324456853288284      10.270380711073571
   183   1       4.108152284429428      12.324456853288284      12.324456853288284
   184   1       4.108152284429428      12.324456853288284      14.378532995502995
   185   1       4.108152284429428      14.378532995502995                       0
   186   1       4.108152284429428      14.378532995502995       2.054076142214714
   187   1       4.108152284429428      14.378532995502995       4.108152284429428
   188   1       4.108152284429428      14.378532995502995      6.1622284266441421
   189   1       4.108152284429428      14.378532995502995      8.2163045688588543
   190   1       4.108152284429428      14.378532995502995      10.270380711073571
   191   1       4.108152284429428      14.378532995502995      12.324456853288284
   192   1       4.108152284429428      14.378532995502995      14.378532995502995
   193   1      6.1622284266441421                       0                       0
   194   1      6.1622284266441421                       0       2.054076142214714
   195   1      6.1622284266441421                       0       4.108152284429428
   196   1      6.1622284266441421                       0      6.1622284266441421
   197   1      6.1622284266441421                       0      8.2163045688588543
   198   1      6.1622284266441421                       0      10.270380711073571
   199   1      6.1622284266441421                       0      12.324456853288284
   200   1      6.1622284266441421                       0      14.378532995502995
   201   1      6.1622284266441421       2.054076142214714                       0
   202   1      6.1622284266441421       2.054076142214714       2.054076142214714
   203   1      6.1622284266441421       2.054076142214714       4.108152284429428
   204   1      6.1622284266441421       2.054076142214714      6.1622284266441421
   205   1      6.1622284266441421       2.054076142214714      8.2163045688588543
   206   1      6.1622284266441421       2.054076142214714      10.270380711073571
   207   1      6.1622284266441421       2.054076142214714      12.324456853288284
   208   1      6.1622284266441421       2.054076142214714      14.378532995502995
   209   1      6.1622284266441421       4.108152284429428                       0
   210   1      6.1622284266441421       4.108152284429428       2.054076142214714
   211   1      6.1622284266441421       4.108152284429428       4.108152284429428
   212   1      6.1622284266441421       4.108152284429428      6.1622284266441421
   213   1      6.1622284266441421       4.108152284429428      8.2163045688588543
   214   1      6.1622284266441421       4.108152284429428      10.270380711073571
   215   1      6.1622284266441421       4.108152284429428      12.324456853288284
   216   1      6.1622284266441421       4.108152284429428      14.378532995502995
   217   1      6.1622284266441421      6.1622284266441421                       0
   218   1      6.1622284266441421      6.1622284266441421       2.054076142214714
   219   1      6.1622284266441421      6.1622284266441421       4.108152284429428
   220   1      6.1622284266441421      6.1622284266441421      6.1622284266441421
   221   1      6.1622284266441421      6.1622284266441421      8.2163045688588543
   222   1      6.1622284266441421      6.1622284266441421      10.270380711073571
   223   1      6.1622284266441421      6.1622284266441421      12.324456853288284
   224   1      6.1622284266441421      6.1622284266441421      14.378532995502995
   225   1      6.1622284266441421      8.2163045688588543                       0
   226   1      6.1622284266441421      8.2163045688588543       2.054076142214714
   227   1      6.1622284266441421      8.2163045688588543       4.108152284429428
   228   1      6.1622284266441421      8.2163045688588543      6.1622284266441421
   229   1      6.1622284266441421      8.2163045688588543      8.2163045688588543
   230   1      6.1622284266441421      8.2163045688588543      10.270380711073571
   231   1      6.1622284266441421      8.2163045688588543      12.324456853288284
   232   1      6.1622284266441421      8.2163045688588543      14.378532995502995
   233   1      6.1622284266441421      10.270380711073571                       0
   234   1      6.1622284266441421      10.270380711073571       2.054076142214714
   235   1      6.1622284266441421      10.270380711073571       4.108152284429428
   236   1      6.1622284266441421      10.270380711073571      6.1622284266441421
   237   1      6.1622284266441421      10.270380711073571      8.2163045688588543
   238   1      6.1622284266441421      10.270380711073571      10.270380711073571
   239   1      6.1622284266441421      10.270380711073571      12.324456853288284
   240   1      6.1622284266441421      10.270380711073571      14.378532995502995
   241   1      6.1622284266441421      12.324456853288284                       0
   242   1      6.1622284266441421      12.324456853288284       2.054076142214714
   243   1      6.1622284266441421      12.324456853288284       4.108152284429428
   244   1      6.1622284266441421      12.324456853288284      6.1622284266441421
   245   1      6.1622284266441421      12.324456853288284      8.2163045688588543
   246   1      6.1622284266441421      12.324456853288284      10.270380711073571
   247   1      6.1622284266441421      12.324456853288284      12.324456853288284
   248   1      6.1622284266441421      12.324456853288284      14.378532995502995
   249   1      6.1622284266441421      14.378532995502995                       0
   250   1      6.1622284266441421      14.378532995502995       2.054076142214714
   251   1      6.1622284266441421      14.378532995502995       4.108152284429428
   252   1      6.1622284266441421      14.378532995502995      6.1622284266441421
   253   1      6.1622284266441421      14.378532995502995      8.2163045688588543
   254   1      6.1622284266441421      14.378532995502995      10.270380711073571
   255   1      6.1622284266441421      14.378532995502995      12.324456853288284
   256   1      6.1622284266441421      14.378532995502995      14.378532995502995
   257   1      8.2163045688588543                       0                       0
   258   1      8.2163045688588543                       0       2.054076142214714
   259   1      8.2163045688588543                       0       4.108152284429428
   260   1      8.2163045688588543                       0      6.1622284266441421
   261   1      8.2163045688588543                       0      8.2163045688588543
   262   1      8.2163045688588543                       0      10.270380711073571
   263   1      8.2163045688588543                       0      12.324456853288284
   264   1      8.2163045688588543                       0      14.378532995502995
   265   1      8.2163045688588543       2.054076142214714                       0
   266   1      8.2163045688588543       2.054076142214714       2.054076142214714
   267   1      8.2163045688588543       2.054076142214714       4.108152284429428
   268   1      8.2163045688588543       2.054076142214714      6.1622284266441421
   269   1      8.2163045688588543       2.054076142214714      8.2163045688588543
   270   1      8.2163045688588543       2.054076142214714      10.270380711073571
   271   1      8.2163045688588543       2.054076142214714      12.324456853288284
   272   1      8.2163045688588543       2.054076142214714      14.378532995502995
   273   1      8.2163045688588543       4.108152284429428                       0
   274   1      8.2163045688588543       4.108152284429428       2.054076142214714
   275   1      8.2163045688588543       4.108152284429428       4.108152284429428
   276   1      8.2163045688588543       4.108152284429428      6.1622284266441421
   277   1      8.2163045688588543       4.108152284429428      8.2163045688588543
   278   1      8.2163045688588543       4.108152284429428      10.270380711073571
   279   1      8.2163045688588543       4.108152284429428      12.324456853288284
   280   1      8.2163045688588543       4.108152284429428      14.378532995502995
   281   1      8.2163045688588543      6.1622284266441421                       0
   282   1      8.2163045688588543      6.1622284266441421       2.054076142214714
   283   1      8.2163045688588543      6.1622284266441421       4.108152284429428
   284   1      8.2163045688588543      6.1622284266441421      6.1622284266441421
   285   1      8.2163045688588543      6.1622284266441421      8.2163045688588543
   286   1      8.2163045688588543      6.1622284266441421      10.270380711073571
   287   1      8.2163045688588543      6.1622284266441421      12.324456853288284
   288   1      8.2163045688588543      6.1622284266441421      14.378532995502995
   289   1      8.2163045688588543      8.2163045688588543                       0
   290   1      8.2163045688588543      8.2163045688588543       2.054076142214714
   291   1      8.2163045688588543      8.2163045688588543       4.108152284429428
   292   1      8.2163045688588543      8.2163045688588543      6.1622284266441421
   293   1      8.2163045688588543      8.2163045688588543      8.2163045688588543
   294   1      8.2163045688588543      8.2163045688588543      10.270380711073571
   295   1      8.2163045688588543      8.2163045688588543      12.324456853288284
   296   1      8.2163045688588543      8.2163045688588543      14.378532995502995
   297   1      8.2163045688588543      10.270380711073571                       0
   298   1      8.2163045688588543      10.270380711073571       2.054076142214714
   299   1      8.2163045688588543      10.270380711073571       4.108152284429428
   300   1      8.2163045688588543      10.270380711073571      6.1622284266441421
   301   1      8.2163045688588543      10.270380711073571      8.2163045688588543
   302   1      8.2163045688588543      10.270380711073571      10.270380711073571
   303   1      8.2163045688588543      10.270380711073571      12.324456853288284
   304   1      8.2163045688588543      10.270380711073571      14.378532995502995
   305   1      8.2163045688588543      12.324456853288284                       0
   306   1      8.2163045688588543      12.324456853288284       2.054076142214714
   307   1      8.2163045688588543      12.324456853288284       4.108152284429428
   308   1      8.2163045688588543      12.324456853288284      6.1622284266441421
   309   1      8.2163045688588543      12.324456853288284      8.2163045688588543
   310   1      8.2163045688588543      12.324456853288284      10.270380711073571
   311   1      8.2163045688588543      12.324456853288284      12.324456853288284
   312   1      8.2163045688588543      12.324456853288284      14.378532995502995
   313   1      8.2163045688588543      14.378532995502995                       0
   314   1      8.2163045688588543      14.378532995502995       2.054076142214714
   315   1      8.2163045688588543      14.378532995502995       4.108152284429428
   316   1      8.2163045688588543      14.378532995502995      6.1622284266441421
   317   1      8.2163045688588543      14.378532995502995      8.2163045688588543
   318   1      8.2163045688588543      14.378532995502995      10.270380711073571
   319   1      8.2163045688588543      14.378532995502995      12.324456853288284
   320   1      8.2163045688588543      14.378532995502995      14.378532995502995
   321   1      10.270380711073571                       0                       0
   322   1      10.270380711073571                       0       2.054076142214714
   323   1      10.270380711073571                       0       4.108152284429428
   324   1      10.270380711073571                       0      6.1622284266441421
   325   1      10.270380711073571                       0      8.2163045688588543
   326   1      10.270380711073571                       0      10.270380711073571
   327   1      10.270380711073571                       0      12.324456853288284
   328   1      10.270380711073571                       0      14.378532995502995
   329   1      10.270380711073571       2.054076142214714                       0
   330   1      10.270380711073571       2.054076142214714       2.054076142214714
   331   1      10.270380711073571       2.054076142214714       4.108152284429428
   332   1      10.270380711073571       2.054076142214714      6.1622284266441421
   333   1      10.270380711073571       2.054076142214714      8.2163045688588543
   334   1      10.270380711073571       2.054076142214714      10.270380711073571
   335   1      10.270380711073571       2.054076142214714      12.324456853288284
   336   1      10.270380711073571       2.054076142214714      14.378532995502995
   337   1      10.270380711073571       4.108152284429428                       0
   338   1      10.270380711073571       4.108152284429428       2.054076142214714
   339   1      10.270380711073571       4.108152284429428       4.108152284429428
   340   1      10.270380711073571       4.108152284429428      6.1622284266441421
   341   1      10.270380711073571       4.108152284429428      8.2163045688588543
   342   1      10.270380711073571       4.108152284429428      10.270380711073571
   343   1      10.270380711073571       4.108152284429428      12.324456853288284
   344   1      10.270380711073571       4.108152284429428      14.378532995502995
   345   1      10.270380711073571      6.1622284266441421                       0
   346   1      10.270380711073571      6.1622284266441421       2.054076142214714
   347   1      10.270380711073571      6.1622284266441421       4.108152284429428
   348   1      10.270380711073571      6.1622284266441421      6.1622284266441421
   349   1      10.270380711073571      6.1622284266441421      8.2163045688588543
   350   1      10.270380711073571      6.1622284266441421      10.270380711073571
   351   1      10.270380711073571      6.1622284266441421      12.324456853288284
   352   1      10.270380711073571      6.1622284266441421      14.378532995502995
   353   1      10.270380711073571      8.2163045688588543                       0
   354   1      10.270380711073571      8.2163045688588543       2.054076142214714
   355   1      10.270380711073571      8.2163045688588543       4.108152284429428
   356   1      10.270380711073571      8.2163045688588543      6.1622284266441421
   357   1      10.270380711073571      8.2163045688588543      8.2163045688588543
   358   1      10.270380711073571      8.2163045688588543      10.270380711073571
   359   1      10.270380711073571      8.2163045688588543      12.324456853288284