7.507248403502055079e-02 1.300194191307624969e+01 1.149868054437998888e+00 1.234157416231350268e+01 3.715284877732399238e+00 1.256748470228741033e+00 3.042324112142452019e+00 1.415539408028028412e-01 1.068582873019990886e+00 1.585511975099755499e+00 2.498551970251749133e+00 5.992917948168203779e-01 1.213898300442174794e+01 1.286629166119439560e+01 3.848531585049122405e+00 1.287422060969008974e+01 2.461416514956558388e-01 6.106239654501741221e+00 8.732194135450230821e-01 1.093784699141681038e+01 7.381122198418515801e+00 8.956942943582788530e-01 2.571347718056310683e+00 3.300397561460365559e+00 1.165330776552254477e+01 1.251243383273282217e-01 8.769896212580338357e+00 1.233368275892028632e-02 2.158312287729621914e+00 1.047207087281536708e+01 3.634473147699976536e+00 1.385549325551489241e+00 1.073836764941135513e+01 1.731367008520701578e+00 1.186933388853039517e+01 9.554596173611704657e+00 1.965645514541507766e-01 5.831888226396881869e+00 1.192222454284305933e+01 1.244073656801677252e+01 8.560724666302785835e+00 1.727369214869868275e+00 1.686314196319689040e+00 5.303040489201057639e+00 7.077480448470176988e-01 4.148608964209947736e+00 6.618723223518552246e+00 9.042474812738551249e-01 7.254185148925500481e-01 5.945756761971928483e+00 3.915557427966674719e+00 6.099268363348723243e-01 6.159009982813878459e+00 6.272480780361849639e+00 3.272375421631436021e-01 3.652375541565288319e+00 5.622355092866381909e+00 1.974229464242464926e+00 8.217436488277929385e+00 2.751893847333591214e+00 1.253066843145284492e+00 2.293238633738642118e+00 8.094488958943159673e+00 1.617239502646385274e+00 7.968982387443020343e+00 5.269721470182840706e-02 3.211987595011874141e+00 3.799553316534888037e+00 1.101899462122985973e+01 2.510252768092995357e+00 6.496001936365226825e+00 9.431618625811324819e+00 1.290545582908696787e+01 1.042494151775317057e+01 4.875209583072535185e-02 6.361601647712844532e-01 1.076684904870257853e+01 2.772902044265274313e+00 2.884413333177128891e+00 1.107114705288680057e+01 1.260714861707980639e+01 1.131001972502401198e+00 1.291860569239375955e+01 1.169126658709325284e+01 1.222523913068542356e+01 7.976885050594271220e+00 4.599931421813614918e+00 1.207186957552093354e+01 1.030314492460591502e+01 5.853928898021369065e+00 1.797884011844122609e+00 8.659410303121411800e+00 6.816568615352236016e+00 2.408638746047660817e+00 1.050038783445000945e+01 4.825631269860285677e+00 1.597823634139631799e-01 7.217197968998275925e+00 9.014475632639976865e+00 1.279744976097541098e+01 1.005675976214826761e+01 1.056414514039743402e+01 3.786284951912523233e+00 8.510894337500699791e+00 1.175121697673246679e+01 2.567922174948976011e+00 8.955540429223676213e+00 9.432533463139975538e+00 5.158266684978636718e+00 1.579365194974465814e+00 1.219107619882890736e+00 3.556171013390976299e+00 2.143140918503912751e+00 3.717733595578772476e+00 7.011972086690253292e+00 2.223462723994123369e+00 3.038628518743898610e+00 7.864961371763394382e+00 3.900027685013274681e+00 1.461826480462303124e+00 2.920027997586524204e+00 1.046116834882738489e-01 6.533875378603173800e+00 5.480883304697165670e+00 2.593068985425146522e-01 7.742673168358833458e+00 6.395025652076599343e+00 1.057845995509208237e+01 6.737098961573996014e+00 4.560200824284851961e+00 1.257934723356904883e+01 4.006500522459627511e+00 6.194664477759653565e+00 1.057560920890452927e+01 9.744770466490708216e+00 5.735940936990648886e+00 2.931819196142463557e+00 1.215978511851526278e+01 6.291117733363693176e+00 1.296540035296513338e+01 1.180991363436173458e+01 6.587972239924902773e+00 2.248371234136860242e+00 9.933976513436473255e+00 4.311558777193175374e+00 3.929633003988708850e+00 1.336778035662722575e+00 6.909440964341746927e+00 8.977237097002175759e+00 6.012380029733234155e-01 4.711978933949913184e+00 4.085789800561368423e+00 6.230992711550403129e+00 6.611702755657250741e+00 5.783282622799674755e+00 2.750175930923411949e-01 2.443779886361335585e+00 4.342851541544286320e+00 4.106991422213330800e+00 3.103186131944431381e+00 7.124003735961679240e+00 4.971742405008978238e+00 2.604561996350278630e+00 2.351120202915597091e+00 5.814340852697743145e+00 5.235125217603122216e+00 6.425510099368418437e+00 3.449258212836546544e+00 3.900153895150706429e+00 2.814000893930812097e+00 8.574333171354346916e+00 4.772343844210306330e+00 5.796060486127588618e+00 1.125313222726011908e+01 8.734251384948313657e+00 4.551482006127260505e+00 1.212046427043912544e+01 7.215298993441534137e+00 6.174092734173236785e+00 9.523155179019466843e+00 5.553456788608942318e+00 1.066840407621360853e+01 1.218792974876846102e+01 4.082574847150119091e+00 9.075297457483577190e+00 1.427861745990177678e+00 9.170756016687315437e+00 7.135608224047034653e+00 1.274012431151208169e+01 5.478738404425641306e+00 1.210783158298047368e+01 1.279759735305538104e+00 5.086620131283462243e+00 8.175281216431612208e+00 6.840142389101957043e+00 3.722423873023017471e+00 1.047210630309461266e+01 7.188450021128641509e+00 6.698489297307941293e+00 8.217715467129202978e+00 4.625209568875359167e+00 6.055897527540414771e+00 1.017363747605624802e+01 3.123216188876504873e+00 4.091336847220793160e+00 6.011328246019485455e+00 7.556633540867902177e+00 4.383405597500956929e+00 1.222947322912697388e+01 1.005540038521263391e+01 6.082419575853358573e+00 7.844762833601715890e+00 1.101212015205488903e+01 7.910368800004763834e+00 8.889078526436254180e+00 8.435768187534060658e+00 8.482983253942920854e+00 1.658022460602120107e+00 3.679650740714009993e-01 1.015821735058205633e+01 3.448837119887634639e+00 2.182303421710239721e+00 9.771840891713734933e+00 1.061696270576999668e+00 3.893341459594096499e+00 1.126173155570728035e+01 1.695693002497576707e+00 1.278269358417559332e+01 6.380000248621937153e+00 1.564312205585993709e+00 5.996255903081451955e+00 8.580227608791728855e+00 1.510811798530364625e+00 8.420326365764015719e+00 9.633015023422828449e+00 9.847529668177268380e-01 6.330066679296463050e+00 1.051628743247882980e+01 3.447609000507080967e+00 4.849467372646726560e+00 8.915984678982269429e+00 1.199867504637494164e+01 8.311812075528761667e+00 1.012566979029395142e+01 2.259513732664075292e+00 1.070095308121086397e+01 1.149832515752897422e+01 1.226731938970566382e+01 1.156055837756392890e+01 1.175022608836128413e+01 2.361631151811454554e+00 7.065658326661972133e+00 1.072109647970493818e+01 5.406559536322758319e+00 7.197105098559796188e-01 8.393126523536784234e+00 6.424150724747648589e+00 2.244845711876249705e+00 1.122539718370380868e+01 6.224693931011994863e+00 2.745659613224300966e+00 1.170167798802475012e+01 7.548371924882843587e+00 1.261526634977397876e+01 7.636317295392518467e+00 4.183897029714715998e+00 4.482493729704058794e+00 6.708050862717847451e+00 3.911567382828513129e+00 7.723899616383542721e+00 8.903654698262913669e+00 3.615668452287249313e+00 6.755487649949825979e+00 1.037009431010528004e+01 6.338700201287330138e+00 4.834276065849503645e+00 9.071047830948090862e+00 4.112121452659242671e+00 9.189251385903427050e+00 8.414653395620137033e+00 6.542433802846272073e+00 7.641225339352171630e+00 1.156259242675487720e+01 4.025733795088324740e+00 1.173115141997119082e+01 1.194409573267054014e+01 4.952226808173554318e+00 7.741519900570185797e+00 1.063555606334343828e+01 8.227920456836979923e+00 1.003522632711368523e+01 8.323699738962481831e+00 1.115746445201092918e+01 7.128764776727127828e-01 1.046639312804364152e+01 9.666497960358663377e+00 1.197391905339316764e+01 1.056724081926354941e+01 1.242186462730373542e+01 1.482061172025088025e+00 8.463584319484795060e+00 9.346950637470722967e+00 2.722924372634235368e+00 7.908401187134223242e+00 1.210343709009123359e+01 4.734475134035319499e+00 8.921968439136044537e+00 9.597452261408916385e+00 6.001719963301120231e+00 1.056024072559870675e+01 1.026166584754510502e+01 3.825699051198131251e+00 8.204240934304811717e+00 9.741848247762277424e+00 1.117855178356590784e+01 8.789483604958181928e+00 1.229189264940009885e+01 1.073914219961617711e+01 1.126380662141220235e+01 7.632498770197980065e+00 7.270663205507590376e+00 1.087226093094446888e+01 1.010210512363491020e+01 8.211892198751440830e+00
2.687813626405345602e+00 3.281265064194082370e+00 7.775872455243148629e+00 1.231479338659293354e+01 4.142480632379387018e+00 1.118508805902117587e+01 5.933490784963153963e+00 3.034424699515265722e+00 8.864413824819555865e-02 1.885284342515077594e+00 4.608789937728089647e+00 1.232840616701602343e+01 5.283081123439261617e-01 6.594617362907039260e-01 2.868515843651181285e+00 1.273574176714391371e+01 1.250884783263745348e+01 9.970028870423604417e+00 6.085780383362979329e+00 1.226394507878869788e+01 1.011780819972059930e+01 3.389663107388038443e-01 3.320090155545492028e+00 6.013345647632714064e-01 2.096014223701500256e+00 1.018792057757083569e+01 8.629255785940392443e+00 2.185833106707344431e+00 5.585924731455569336e+00 9.783085281003620182e+00 9.114720207597591939e-01 9.585602972189091631e+00 1.065119388954148505e+01 3.517232148391316038e+00 1.012349936637224168e+01 1.410326085086143655e+00 1.081619100262077104e+01 5.557295566807710863e+00 8.192579026566985334e+00 1.186669081304758855e+01 5.434172781729150747e-01 1.215569892450425016e+00 1.216737747032625272e+01 7.317894737751345247e+00 3.863534987556238587e+00 2.461565834718283163e+00 3.207973029573968127e+00 2.101726854629409669e+00 5.778949162298142594e-01 6.234021974045556469e+00 6.605788125480129835e+00 4.697072925283258371e+00 8.442448876670150426e+00 1.066797562432540936e+01 7.569783468587732989e-01 2.936800635774686974e+00 4.284783222153915716e+00 1.803945846972741851e+00 7.348388699055704798e+00 1.178000539938590840e+01 1.049142121052964782e+00 2.290528207915323300e+00 1.016385284709813064e+01 1.228424265083288525e+01 6.413149733914768724e+00 1.014003721341756759e+01 1.127950847310395766e+01 7.670477045598674160e+00 6.696076697957648705e+00 4.830417292961906028e+00 6.191207745476813074e+00 9.484643322395299947e+00 1.236815971461253305e+01 1.137851711256912068e+01 1.232295133726407776e+01 1.251226430800679346e+01 1.021525802300628349e+01 2.540072728244489486e+00 1.247991044529379501e+01 4.916951147387109700e+00 2.856289323614376929e+00 2.744323412367760895e+00 2.122514808518469742e+00 1.249470593148650543e+01 3.682927966486716720e+00 7.010738325635279544e+00 2.856490192156619923e+00 9.395920251463170558e+00 1.023863510262861531e+01 8.335876315954013904e+00 1.739294922727408377e+00 8.844872427447613816e+00 3.084403049661520235e+00 5.023337208961526912e+00 8.167152101382651352e+00 3.299418185635556999e-01 2.843067726395166250e+00 7.784594027529553983e+00 8.057881792247282959e+00 1.159747378435609733e+01 9.366867021828266360e+00 1.017212494479986695e+01 1.143692714575485381e+00 9.242932828982990401e+00 2.700894515884757485e-01 8.802588297415638863e+00 1.300444428590415669e+01 8.557611891581659691e+00 4.427512151659406037e+00 4.653830159436449954e+00 3.244526066025946953e+00 4.852369476885618482e+00 1.253101425804606528e+01 4.386400544544908797e+00 4.664570182723706715e+00 9.893916897918304088e+00 3.754229395382575163e+00 8.130040344324417134e+00 9.000349697742485944e+00 1.236674323345714299e+01 3.551374995357341913e+00 1.065330381977551966e+01 6.580923129498466473e+00 1.969484231799533802e+00 2.055193047134940831e-01 8.355357018245124223e+00 6.853969732034747686e+00 8.482501915230860945e+00 5.856680065605128327e+00 1.242015450050156389e+01 1.159805475858119195e+01 4.762924604213899293e+00 7.437954448132357399e+00 9.943866386835821913e+00 9.740290861427405744e+00 1.050225381997118212e+01 2.291332919040915517e+00 1.200684507972522574e+01 6.779936658388867166e+00 6.896042070501111620e-01 1.440679146321927728e+00 3.675546701664397453e+00 2.547567564515600846e+00 1.010656825281056648e+01 5.095541217643637211e+00 1.019374840388957759e+00 1.155146471453777401e+01 3.698313473886770453e+00 5.491299979421793154e+00 8.029288212428346005e-01 3.429815925750628214e+00 2.413056777331209712e+00 4.504793592346185704e+00 8.547436398831866455e+00 3.845587195633800803e+00 5.035797310195628401e-02 2.898080660831728883e-01 6.812210007118808086e+00 7.878241279389498475e-01 4.009997979531576107e+00 7.769385361685099411e+00 5.143075923735008992e+00 2.293431850862448051e+00 1.189364037285478304e+01 3.898005716940887044e+00 1.480251315606765816e+00 5.922976892080628275e+00 3.494310830484953279e+00 7.439186216596714862e-01 1.485055919509565392e+00 6.360952579971892895e+00 5.094720690171533839e+00 3.458431453704401637e+00 7.740832938117286233e+00 3.162787460618388558e+00 9.168683282037319859e-01 2.287972000248764459e+00 6.318818857713677239e+00 3.736924497940285583e+00 1.050854052975589958e+01 7.260295663508832931e+00 7.049422918234881763e+00 1.063705534160092370e+01 1.819708467560875231e+00 1.176663586513299364e+01 8.291834282071924855e-01 1.032311815503687491e+01 8.411127039241240055e+00 2.311758945418046274e+00 7.180414413809882213e+00 1.046790743764868559e+01 1.356336603706595811e+00 6.494519816360038611e+00 6.343876351728789054e+00 6.639939167233373851e+00 5.363572820899550564e+00 8.538934954495131180e+00 7.814412270468200639e+00 6.646979478524054130e+00 8.582024556137506366e+00 3.207992458109514278e+00 1.039964627471937142e+01 1.064219847796083762e+01 9.203957394322878072e-01 5.492260765198970773e+00 1.641375592532177574e+00 5.886236625237036613e+00 4.601225923193304368e+00 1.245183951050104554e+01 8.067430387487845023e-01 5.915020441012234897e+00 5.526208572124895468e+00 1.205155166486156837e+01 8.221831067311320851e+00 1.181139902338388659e+01 1.258501625739019936e+01 1.168066814670739895e+01 2.055723416939942982e+00 9.348018379101816322e+00 6.169265356054315141e+00 2.315276134389752105e+00 3.320798783719833835e+00 8.462382572620215981e+00 3.041507592193918974e+00 3.444879366814566524e+00 1.097594705828293016e+01 3.060635584279911114e+00 2.292376507824393173e+00 5.557951114776020773e+00 1.051285411279435067e+01 1.235085158117260029e+01 6.506724551004740675e+00 1.108369344601722162e+01 6.899390966852600116e+00 7.672902524422463344e+00 1.506496691830298218e+00 1.115989005888050478e+01 9.957843153595172581e+00 2.951422819422525379e+00 6.417062468529373120e+00 8.468934896012420666e+00 1.400545151014924272e+00 5.197330074010489298e+00 1.030635256364550933e+01 5.354689141205190239e+00 5.533132476492613749e-01 7.994211049152297743e-01 7.268665058450980432e-01 1.254547456920561999e+01 1.200987647734418751e+01 4.292550206477110386e+00 5.815321499070708278e+00 9.429044217410423201e+00 5.210651041911900982e+00 1.078430653925417460e+01 7.194873195169529723e+00 5.860045267220588272e+00 4.014662938594239172e+00 3.037372224673816845e+00 4.953649163400092093e+00 5.631697228219064044e+00 9.539680233775831297e+00 8.047769689183924768e+00 1.002649321895019696e+01 6.440223145923436476e+00 4.021418399836573343e+00 5.589543312232740035e+00 8.592962847932696491e+00 2.772722655332018782e+00 8.884109685450725991e+00 8.584068560933792114e+00 5.046236369549987444e+00 6.377204543083034416e+00 9.391931154482854538e+00 7.047429895766718744e+00 4.293003913751380018e+00 6.185418647780227097e+00 1.315384027194817840e+00 8.148447179919619643e+00 1.047413531234570172e+01 9.647401300865698914e+00 5.467349829833163533e+00 8.600530210905089845e+00 9.665248023620078399e+00 4.074824422608879004e+00 2.639045303612871374e-01 4.491095773629609766e+00 8.587344022897262619e+00 8.083277995052316811e+00 5.908018441056981374e+00 8.596070852187532196e+00 9.299935869445326020e+00 9.329738275359745758e-01 1.138266185777188522e+00 1.029637268217399892e+01 1.240899302462918108e+01 1.063358631602534210e+01 1.022057166248635518e+01 1.265551423916718043e+01 6.302533755947503202e+00 1.052136932350956755e+01 7.973022604472857822e+00 1.280552328882075308e+01 8.602737293336407021e+00 1.208866112621206490e+01 3.300663611185610247e+00 8.130608899499840447e+00 6.716028662670444405e+00 1.469326824978039348e+00 3.968111192400217702e-01 9.072614694049601525e+00 5.437559897822887400e+00 1.265262147624937938e+01 1.092370884948777210e+01 7.634595917051378855e+00 3.558582924498422617e+00 1.129786992870577578e+01 1.065721543512742464e+01 3.649808423633121301e-01 8.276737123220824444e+00 8.199561341999158870e+00 1.153357476777360269e+01 1.388619879977400995e+00 4.594161925109935041e+00
2.445278549440912941e-01 3.909252491967742382e-01 1.043747621127567304e-01 1.214889457173241638e+01 2.118768312770800133e+00 2.333877468254373699e+00 1.932091699566945930e+00 1.909410979452695958e-02 2.323431411700015214e+00 1.968831448405518270e+00 1.793374803874799639e+00 5.072039879257785877e-01 1.219862643722935758e+01 2.151364595871409768e-01 4.127070942491932293e+00 7.207714220650347503e-01 2.483786416874942837e+00 5.464181928014314238e+00 1.909538913721990916e+00 1.179276902088932921e+01 5.956448086801848341e+00 2.718021039029589581e+00 1.728514845127369970e+00 4.415300393193106743e+00 1.189430313674307804e+01 5.223187196125146370e-01 7.266221825580760019e+00 6.711112170843654967e-01 2.286685719788285720e+00 1.031435699086539515e+01 1.962248504560370144e+00 1.226592122129379625e+01 1.056302387194911674e+01 2.138611053049324529e+00 1.437476603262193953e+00 7.588677019809725088e+00 4.875158920055520650e-01 3.994408787363976643e+00 1.199483951439530927e+01 6.603511390824454708e-01 5.910518061925960964e+00 1.466209438502536377e+00 2.214153866921264591e+00 3.693641351617606539e+00 2.514868204516078176e+00 2.488025303822456458e+00 6.751090028193489800e+00 1.201291757434419871e+01 1.096272500165351577e-01 4.979148063195180107e+00 4.309001304317938263e+00 1.217788749516487989e+01 5.399958278253770949e+00 7.764305232763119236e+00 1.984909687128205258e+00 4.276060925020987113e+00 6.304676940157523113e+00 2.272073237305331617e+00 6.416386492521851004e+00 3.887128370499304708e+00 1.209237420513375660e+01 2.902509089656966079e+00 8.299687673964424306e+00 2.230531964434689651e-01 6.319586576802655564e+00 1.004463681094637195e+01 2.111537803330788332e+00 4.225434732982490615e+00 9.907143181260071430e+00 2.303699349206055569e+00 6.451237975926731316e+00 8.303570597794925234e+00 1.200108501442419495e+01 8.119316189927697991e+00 1.222445949137935806e+01 1.228500428891453744e+01 1.031608072318259417e+01 1.487910603593225689e+00 1.622154262903089839e+00 8.227782916203983277e+00 2.065570052773439080e+00 2.138536448488037589e+00 9.471415720703591390e+00 8.673965062750332855e-02 1.185641858197020149e+01 8.399209803089556559e+00 3.505534427925439900e+00 1.185451719934630077e+01 1.002461268776954739e+01 5.661628149419422940e+00 5.655642793230007959e-01 7.323955982526238806e+00 5.599458888992666417e+00 1.809630905185793504e+00 9.598881466509146421e+00 4.236318645222299395e+00 1.205809304648763458e+01 8.370285354177994463e+00 8.355799028644025128e+00 1.217174358467731032e+01 1.000099836262024766e+01 1.064118252143036081e+01 1.780391648051354414e+00 8.318219327417581965e+00 9.774688878374510281e+00 1.156758599523779463e+00 1.103592328790092303e+01 8.483815133174861245e+00 3.639820554270364994e+00 1.224489187657675160e+01 9.536081261726499225e-02 3.965687180256010080e+00 1.947530754054290103e+00 2.084354518256923416e+00 5.824140410258813461e+00 1.211693786340724799e+01 1.717440830686475017e+00 5.931308155259628734e+00 2.079138997427379287e+00 1.221555503761733341e+01 4.150092368668460985e+00 1.141992724100926893e+01 4.171295162464788042e+00 4.256456690261904541e+00 2.631615121484692565e+00 6.689184842173959034e+00 6.057914076385758406e+00 1.986469629277633209e-01 6.035377714394043913e+00 6.268716389690092150e+00 2.112150357405618628e+00 4.200283925888725456e+00 4.207692245603121606e+00 1.214700804580737348e+01 8.120996236933837764e+00 4.332805546066448521e+00 1.827747805522138336e+00 1.015105691801316290e+01 6.055276045810702001e+00 1.173737228352948847e+01 1.075296523597761578e+01 6.200105763694755190e+00 1.938382337839061220e+00 8.329633277320564133e+00 3.812026576388737542e+00 4.648181865016725922e+00 1.225215096134987647e+01 4.028613247194446245e+00 6.332700718471168777e+00 2.001471222887889923e+00 5.747410378929554753e+00 4.063676711471733149e+00 1.862832330821236670e+00 5.954515316747022169e+00 6.543269544517964498e+00 1.229368664178471704e+01 4.204264482062260555e+00 3.955772461365183013e+00 3.926833064313031585e+00 4.099407652197429641e+00 7.046488673194854613e+00 6.223237394444255166e+00 5.626690473322863539e+00 4.712637635993195850e+00 5.916440464220100282e+00 6.122369002221154766e+00 6.465422989417980659e+00 3.645947278385915258e+00 4.239634010732491909e+00 4.587653999947150396e+00 8.742270411620060244e+00 4.189065883777570498e+00 7.967930716345481557e+00 9.644782961760489215e+00 5.790207635065978131e+00 4.437175651563581624e+00 1.068384772317940978e+01 6.006041901614096901e+00 6.313099254394198390e+00 8.133932783758496043e+00 4.761549217070621509e+00 8.625695848115071840e+00 1.224913543172693764e+01 4.299039744970275301e+00 1.010844675878874099e+01 1.785267628251774319e+00 6.176828908537128626e+00 8.399918717921160294e+00 1.806577146090815544e+00 7.648649571670082636e+00 1.033099878482933498e+01 6.500462880756445738e-01 4.504452820399923674e+00 8.529436990645502092e+00 3.816792048969371187e+00 4.833310507226053154e+00 9.944014932737919921e+00 6.073041083922474215e+00 6.485593225429377107e+00 8.122022025644078269e+00 5.755737103046548953e+00 6.908949466175246634e+00 1.001727230582020312e+01 3.689696838199072459e+00 2.678175174909167122e+00 9.032087349811154908e+00 7.268375814202019392e+00 3.703918821421459118e+00 1.053998855972885629e+01 1.022824849174609163e+01 6.669108719634756710e+00 8.283600964039543157e+00 1.027949927597810920e+01 5.757410414017075873e+00 9.768353598441665397e+00 8.399099942019663700e+00 8.243867154951029619e+00 2.757271411556811436e-01 8.761597196668533538e-01 8.892040018596429007e+00 2.341232518114875649e+00 2.350468713795428322e+00 1.025421636170332640e+01 1.203578923839337556e+01 2.294990684093453748e+00 1.070128143432919465e+01 1.896440188018053918e+00 8.231019962064865803e-02 7.622910320479070911e+00 1.860350747435975394e-01 3.677454883839821331e+00 7.800800082528777324e+00 2.351273567268387321e+00 6.286135749899675496e+00 9.937241482645664092e+00 1.217869882855294961e+01 5.732163241357051575e+00 1.049313024196278477e+01 2.557456813553376840e+00 4.628813797038469957e+00 7.704939839546206315e+00 1.213124689862023509e+01 8.297625467776841290e+00 7.682573286295738768e+00 2.048623409088514258e+00 1.055967407920377887e+01 1.165835802930525666e+01 1.225504466846540019e+01 9.680655229845353205e+00 9.767889348937037752e+00 1.413479183123573124e+00 8.511749515236378016e+00 8.634409849653678748e+00 3.552033117487909397e+00 1.296595238943633877e-01 8.124139959369768960e+00 6.054338112213711653e+00 2.022469145289858439e+00 1.051560777010350378e+01 3.996745653292910205e+00 2.159711109694567810e+00 1.049177423634697348e+01 5.971653124533085055e+00 1.187930630761131390e+01 7.878804253806548807e+00 4.235470604570639175e+00 3.867314761055669070e+00 8.068973066776846892e+00 6.083663031065203342e+00 6.340801338912472218e+00 9.821288515577981215e+00 4.184813156457993344e+00 6.854897831043696321e+00 1.003703085355047264e+01 5.433744585767915858e+00 4.630418257142746796e+00 7.666285860519952422e+00 4.094752000525635260e+00 8.353962529835412099e+00 8.299810622285164641e+00 5.630368346049060335e+00 1.047450027807827944e+01 1.058621236229868856e+01 3.804911862715150583e+00 1.015837860520777625e+01 9.719898205186403572e+00 6.412107094413291186e+00 8.440327125900834560e+00 8.398027721634292675e+00 7.930919443771794697e+00 1.215725499483490246e+01 1.012668251030503264e+01 9.077732178272249541e+00 1.690018421994272879e+00 1.052738929126676481e+01 6.530908605801520217e+00 2.259789228518170656e+00 1.022050025113337135e+01 1.139144782782903675e+01 3.670247606061937534e-02 8.466447215743437837e+00 8.052563128842882278e+00 3.916431028626704336e+00 7.725548193968910127e+00 1.029291109124558190e+01 6.566542080658820169e+00 1.042862227589877300e+01 7.753108521078790893e+00 6.627779433885163662e+00 9.650317511819494598e+00 1.026642907154669437e+01 4.087177635425081945e+00 7.954220923841811342e+00 8.351902972112418055e+00 8.073278775295060328e+00 8.351468564520867943e+00 1.039697377160966418e+01 1.040397205614074139e+01 1.010768428458695034e+01 8.214090545109819175e+00 1.002881808648791839e+01 1.019626118600033848e+01 1.068331950015618936e+01 8.299209615355541914e+00