-6.765315717899999981e+03
-6.768028969599999982e+03
-6.780210263400000258e+03
-6.792822948299999553e+03
-6.780361842500000421e+03
-6.751003326500000185e+03
-6.791746206599999823e+03
-6.763632867500000430e+03
-6.755344871500000409e+03
-6.773137290800000301e+03
-6.778317918699999609e+03
-6.767148094500000298e+03
-6.771222295599999597e+03
-6.765485427399999935e+03
-6.777755540500000279e+03
-6.778298403699999653e+03
-6.762903258500000447e+03
-6.765725621399999909e+03
-6.766811900599999717e+03
-6.778570287900000039e+03
-6.773894980799999757e+03
-6.749309610600000269e+03
-6.780741788299999826e+03
-6.780714296199999808e+03
-6.777110876900000221e+03
-6.779893159700000069e+03
-6.762757025500000054e+03
-6.771080634699999791e+03
-6.772455584899999849e+03
-6.764882934600000226e+03
-6.750120840399999906e+03
-6.770818383099999664e+03
-6.763959926300000006e+03
-6.779468972700000450e+03
-6.761966684400000304e+03
-6.753603779400000349e+03
-6.767045732499999758e+03
-6.791570309099999577e+03
-6.795509403500000190e+03
-6.754856738600000426e+03
-6.790505598200000350e+03
-6.756869379699999627e+03
-6.749866138499999579e+03
-6.780291218499999559e+03
-6.766453330600000299e+03
-6.770239625000000160e+03
-6.757817577800000436e+03
-6.771050280499999644e+03
-6.772441485199999988e+03
-6.754964594000000034e+03
-6.769274487300000146e+03
-6.772181687299999794e+03
-6.770631434099999751e+03
-6.770872411500000453e+03
-6.763537779199999932e+03
-6.771489990799999759e+03
-6.749687839799999892e+03
-6.770518065899999783e+03
-6.773345610899999883e+03
-6.768763507200000276e+03
-6.774253251299999647e+03
-6.749229758399999810e+03
-6.773993817599999602e+03
-6.766161183199999869e+03
-6.765796687099999872e+03
-6.765853884500000277e+03
-6.774870150900000226e+03
-6.775689964299999701e+03
-6.773493878700000096e+03
-6.793696628699999565e+03
