5.154740450999999446e-01 2.727027669000000043e-01 3.374642781000000147e-01 2.626429482999999898e+00 -5.697796601000000294e-01 2.101464302999999922e-01 -1.137023257100000073e+00 4.549882241000000049e-01 5.004551712000000485e-01 5.635558261999999985e-01 -3.020257571000000141e-01 -5.546769618000000346e-01 -1.302718501000000029e-01 -5.046039775999999755e-01 -1.577391426199999946e+00 9.535996319999999749e-01 -2.249714379999999958e-01 1.295981756700000043e+00 8.950222809999999751e-02 1.043436908099999894e+00 3.551075589000000088e-01 -1.128978541900000021e+00 -1.284263320099999994e+00 -6.971533293999999659e-01 -6.174719840000000154e-02 -1.711994404000000136e-01 5.573497299999999842e-03 1.605582174999999889e-01 -2.787181248000000222e-01 -1.126156844999999934e-01 -4.103882299000000122e-01 1.019864979000000005e-01 1.067553253000000035e+00 6.294657808000000410e-01 -2.295966869999999938e-01 -4.346609654999999961e-01 8.815729444000000026e-01 -6.362858570000000380e-02 -2.017882847400000124e+00 -4.429348629999999704e-02 -9.431612699999999613e-03 1.735418453499999902e+00 1.456809660300000031e+00 -7.778837071999999964e-01 1.580638165000000095e+00 -3.682148927000000183e-01 -6.198653436000000072e-01 -1.107482541999999931e-01 -9.365162050999999988e-01 6.822181665000000006e-01 -2.534467481500000119e+00 7.170715838000000231e-01 1.255931628399999944e+00 1.713208201300000066e+00 -3.406551635999999772e-01 1.341751505000000066e-01 8.790053999999999923e-02 -1.570375776999999862e-01 -3.627460729999999745e-02 3.986165268999999900e-01 -7.564322880000000360e-02 -1.669628529999999944e-01 5.119110720000000225e-02 -5.609995048000000484e-01 1.644085134999999920e-01 -1.042409499000000045e-01 -9.835839379999999910e-01 7.174366433000000098e-01 5.112485770000000374e-01 3.415830038000000068e-01 -1.641398144100000067e+00 1.118669729999999918e+00 4.181347481000000088e-01 6.469609724999999534e-01 5.487022581999999593e-01 -1.192108461999999980e-01 1.764701348000000114e-01 -2.264953540000000029e-02 -8.592109670000000476e-02 -9.151754578999999890e-01 -3.617312118000000076e-01 -6.229759799999999917e-03 7.827015696000000355e-01 9.302829003000000485e-01 7.379636601000000296e-01 1.067052229399999996e+00 -2.127597230000000117e-01 -2.698881783000000034e-01 8.172778549999999698e-02 -2.942930933999999832e-01 -1.826280057999999928e-01 -1.224061462199999895e+00 -2.230073552000000070e-01 1.115778271999999932e-01 1.166279833000000016e-01 -2.783843139000000133e-01 -5.431578242000000278e-01 3.100557044000000206e-01 4.226440772999999762e-01 4.289047059000000162e-01 -4.499440294000000007e-01 -1.343964852400000076e+00 -3.404108026000000065e-01 3.911047780000000140e-02 -1.447888746000000060e-01 -3.186234024999999859e-01 1.758902590399999966e+00 -2.005554328999999969e-01 4.948091714999999780e-01 -2.781717700000000196e-03 4.298495961000000087e-01 2.051517039200000170e+00 -1.116367386400000106e+00 -2.720557307199999997e+00 -3.998243305999999997e-01 -1.902798353899999961e+00 6.283844089000000244e-01 -1.185584255600000025e+00 7.002992982000000310e-01 -4.988499720000000304e-02 -1.731998159999999926e-02 -1.927080011299999951e+00 5.656539310000000542e-01 -5.571710916000000013e-01 -1.339791248899999898e+00 1.610646661599999918e+00 4.095710866000000228e-01 2.382639192000000072e-01 -4.863735000000000107e-03 1.486355486000000004e-01 -1.687776571000000059e-01 1.286645402000000105e-01 7.411009172000000422e-01 -4.646436270000000035e-01 -1.628891937799999967e+00 1.432719520000000010e-02 8.827548067999999581e-01 2.272284234999999986e-01 7.412116669999999630e-01 1.891198323100000023e+00 1.055954825999999985e-01 -1.237380151000000011e-01 -2.875578015999999959e-01 -6.000219544999999544e-01 -5.505560268000000423e-01 9.842710806000000145e-01 2.416570638999999965e-01 -1.405479833999999928e-01 -1.400730856300000049e+00 8.706644339999999871e-02 -3.341845806000000030e-01 -1.161693059599999911e+00 -1.905806410200000078e+00 -3.642483384999999907e-01 5.108095011000000074e-01 -2.830193625999999907e-01 2.320082940899999890e+00 9.222366963999999445e-01 1.878975143999999931e-01 6.261919999999999813e-03 -1.507751335999999998e-01 2.145852923999999884e-01 -6.224017963000000320e-01 1.388010212299999990e+00 2.061161595500000221e+00 -3.694201639999999953e-02 -6.457061141000000060e-01 -3.741470687999999822e-01 4.029971888000000169e-01 1.933822486000000007e-01 -9.728730748999999678e-01 -3.496089336000000047e-01 -7.348912390999999822e-01 1.444028980000000052e-02 -1.823982119999999901e-02 -6.489391473000000188e-01 -1.384254567299999961e+00 -1.310629761099999957e+00 -1.129823992099999952e+00 2.119577922599999997e+00 -6.477245972999999823e-01 -1.451637379099999903e+00 -5.858006899999999677e-03 5.196524368999999588e-01 1.232995795499999936e+00 2.222066554000000083e-01 -1.423009089800000071e+00 1.184844967000000082e+00 -7.440688922999999511e-01 3.829749064999999897e-01 -8.400203101000000006e-01 7.022709591000000362e-01 4.078161891000000039e-01 6.139011088000000393e-01 -1.085858739999999989e-01 2.437644452000000128e-01 7.013171857000000120e-01 6.193893523000000290e-01 7.543881332999999856e-01 -1.414577720999999899e-01 7.010486205000000526e-01 -8.543499251999999711e-01 1.046820699099999974e+00 -1.303876834999999901e-01 -1.592650462000000100e-01 8.642999219999999982e-02 4.692130829999999753e-01 -4.676664033999999859e-01 -1.088602507200000069e+00 -4.669905827999999981e-01 1.345331988699999926e+00 1.657673530799999906e+00 2.131338214000000064e-01 -1.881634872999999875e-01 6.774782844000000193e-01 4.274433729000000071e-01 7.940994510000000395e-02 -7.204779698000000066e-01 -3.745299008999999901e-01 -7.365984263999999504e-01 -1.611784145399999923e+00 1.525755223300000019e+00 -6.212172170999999965e-01 -1.359578271999999921e-01 -1.845947061900000019e+00 4.806416179999999927e-01 -9.818765986999999917e-01 1.724362943700000095e+00 9.036445368000000089e-01 1.306261923299999905e+00 -1.923528038099999948e+00 -6.468752164000000082e-01 5.946477140000000494e-01 1.377158739900000040e+00 3.335715697000000146e-01 -8.962149030999999599e-01 -2.083702292000000067e-01 7.888992959999999721e-01 3.639776109999999787e-01 -4.522227355999999809e-01 -9.231498009999999921e-02 -1.153005275299999965e+00 -1.689869000100000074e+00 -1.235506477900000011e+00 -9.959520554999999886e-01 -1.237529732400000082e+00 -4.388016338999999877e-01 3.460789509000000153e-01 5.830584699999999572e-03 -8.209440489999999535e-01 1.267327372000000008e-01 1.079545361499999911e+00 -1.281032244399999964e+00 2.672984778999999977e-01 -2.840495384000000012e+00 -6.632008400000000137e-02 5.464265633999999539e-01 8.943108911999999577e-01 1.844049846499999923e+00 1.028129657000000030e+00 -3.732319729999999947e-02 4.680627700000000030e-02 8.408762378999999898e-01 -6.363258722000000311e-01 -1.263488321000000025e-01 9.249377590999999788e-01 2.174628651000000135e-01 -8.301665580999999516e-01 3.706343053999999748e-01 1.019580735899999979e+00 9.960683598999999777e-01 2.253474999999999923e-02 -7.845546956000000183e-01 -2.353981093199999819e+00 -7.073168465000000404e-01 3.404417743299999799e+00 1.422843263000000136e-01 8.313380189000000309e-01 1.037079714599999924e+00 2.170236352499999910e+00 -3.904797307999999800e-01 -3.185835210800000095e+00 -1.445263367000000077e-01 3.127383518999999890e-01 -9.024039386000000107e-01 -8.496076938000000078e-01 -4.614573520999999956e-01 6.665089209000000237e-01 -1.064129075999999952e-01 -1.332643239700000093e+00 -1.067800193500000105e+00 3.959413590000000066e-02 7.614181298000000098e-01 -3.941238338999999979e-01 5.827910447999999910e-01 1.653051256299999938e+00 1.915556589799999987e+00 -5.167992104999999947e-01 -2.257383270000000094e-02 1.359602695999999888e-01 3.495891186000000261e-01 -7.409369379000000366e-01 2.176526263999999933e-01 -2.107832075999999943e-01 -8.509864070000000558e-02 1.031698634000000059e-01 1.644373714000000042e-01 -1.348696039999999936e-02 -5.883678789999999964e-02 3.388319517000000225e-01 5.002876743999999931e-01 -6.162883188000000123e-01 -1.184322853300000089e+00 -6.714694544999999515e-01 -1.541353629999999975e-01 5.161678570000000077e-02 8.195865440999999807e-01 1.380185926800000074e+00 -6.286467250999999701e-01 -1.120656423999999984e-01 -6.447853507999999900e-01 -8.531443800000000632e-02 7.701186765999999961e-01 1.086320800000000059e-01
-2.053796815600000158e+00 -2.241027939000000135e-01 -2.439628852000000070e-01 -2.422506627000000079e-01 -4.623055510999999895e-01 5.904426591000000446e-01 -1.474600048999999968e-01 6.762711200000000311e-02 6.955448835999999968e-01 3.801885610999999887e-01 1.060617922600000096e+00 -1.381612118500000097e+00 1.162210687700000022e+00 -1.188996920999999957e-01 1.166960877800000018e+00 1.202202300099999954e+00 3.889641006999999817e-01 -5.671161863000000469e-01 6.666387431000000419e-01 -5.625237709999999502e-01 -8.214460718999999633e-01 -2.028130126799999822e+00 -1.126138364300000028e+00 7.507228379999999479e-01 5.661254906999999559e-01 1.357139397899999933e+00 -4.695377788000000274e-01 4.749051535000000102e-01 1.486949938000000082e-01 -3.092474289999999973e-02 9.685075720000000388e-01 3.333861988999999859e-01 1.251277994600000110e+00 6.056867230000000379e-01 -1.118971452900000108e+00 2.170234919999999845e-02 -6.972085596999999524e-01 -5.319661311000000170e-01 -2.346663120999999963e-01 -1.685767847499999972e+00 -2.459008967999999906e-01 -1.170070472099999925e+00 1.123306309999999933e-02 2.056277665000000032e-01 2.626285100999999900e-01 -2.751485171999999979e-01 1.433823627200000006e+00 -2.071018232999999875e-01 8.486260324000000077e-01 6.622185299999999719e-02 -7.719013169999999757e-01 -1.742345874000000017e-01 8.828869136000000450e-01 4.031440120000000238e-02 2.338217099999999882e-01 8.430546890000000237e-01 -4.476266834000000028e-01 8.769146816999999761e-01 -7.105043919000000319e-01 -8.405968299999999616e-01 7.043995050000000369e-01 -3.370503075999999876e-01 1.456553536999999898e-01 2.570475429999999895e-01 1.632153922899999943e+00 5.915665005000000365e-01 -3.688451522999999788e-01 -5.809426503000000297e-01 5.653914900000000208e-03 3.184637955999999881e-01 -9.265755023999999729e-01 -7.951892367999999767e-01 2.924749906999999927e-01 -4.224927204000000214e-01 2.448923490999999897e-01 1.163033225999999948e-01 -1.463649186000000046e-01 -2.743626455000000020e-01 -1.270089168499999976e+00 -2.630682498999999952e-01 -6.109448320000000487e-01 1.523837539999999935e+00 2.444664262000000032e-01 7.231891950000000069e-01 7.044722288000000443e-01 1.480295785500000072e+00 -1.269077891100000022e+00 1.637551300399999965e+00 3.049154137999999792e-01 -1.169414576599999922e+00 6.260264199999999828e-03 -1.265428651999999932e-01 2.071593160000000100e-01 1.868929004999999866e-01 -1.109526853700000038e+00 5.526473590999999574e-01 7.825098595999999684e-01 -9.878452540000000059e-01 -4.433636145000000028e-01 -8.754729679999999625e-01 5.796239412999999452e-01 -3.659761562000000135e-01 -3.185684571999999881e-01 9.311569376999999648e-01 8.932109324000000461e-01 -6.879366430000000143e-01 1.451435986000000067e-01 -1.891136984000000021e-01 8.949387035000000434e-01 -7.675572840000000063e-01 4.465185427999999734e-01 3.463887158999999771e-01 1.796057736999999987e-01 -6.276115829999999451e-02 -9.657883901999999576e-01 8.946853916000000462e-01 5.342051598000000512e-01 -2.199868771000000056e-01 -9.808011310000000482e-02 -8.825951890000000022e-02 6.014277528000000483e-01 -2.034726339999999925e-02 -9.534207035999999746e-01 1.234073663000000015e-01 -2.699387136999999992e-01 2.858584259999999988e-01 1.186667002100000090e+00 2.279193498400000184e+00 -1.715836037699999927e+00 1.400376825000000103e-01 6.818210393000000424e-01 5.151405266999999899e-01 -1.588731968200000066e+00 -3.720743883000000030e-01 8.258750913000000304e-01 1.499060759999999992e-01 -2.447546600000000128e-01 -1.534674708000000054e-01 6.940937630000000580e-02 -3.733882733000000176e-01 -2.734768542000000080e-01 2.909209289999999948e-01 5.616178080000000516e-01 -7.401659110999999625e-01 -3.217721729999999947e-01 9.830100969999999716e-02 9.031497973000000012e-01 8.452791697000000548e-01 1.064530219999999944e-01 -3.190395375000000255e-01 -2.071143394999999943e-01 -7.118528080000000036e-02 3.318266583000000214e-01 -1.645162883800000087e+00 -1.147545851100000069e+00 2.029547229999999897e-02 -7.637537108999999935e-01 -7.645395891999999805e-01 7.770636839000000240e-01 2.997397929999999835e-02 1.103276116999999945e-01 1.945432494799999912e+00 -3.424936258999999872e-01 -7.801663283999999976e-01 2.602159329000000021e-01 1.225228724299999961e+00 6.064676639999999619e-01 7.322435972999999931e-01 1.304549789999999952e-02 -1.622136705999999984e-01 5.769485159999999668e-01 5.920846300000000006e-01 1.863865799100000054e+00 7.510366266000000346e-01 5.089823638999999567e-01 -1.034395748399999926e+00 1.455824618000000070e-01 2.506283273000000089e-01 -9.875597259999999711e-01 -1.801957938399999959e+00 -5.186559172000000384e-01 9.064478204999999456e-01 3.331818129999999933e-01 -7.203304447999999693e-01 7.036102762000000510e-01 1.076617465000000023e-01 5.081593949999999721e-02 8.936135839999999331e-02 1.854421733000000128e-01 -3.404672684000000227e-01 -2.747879938000000188e-01 1.753219933800000074e+00 -2.099721311999999784e+00 -1.153106580100000000e+00 1.014940986600000095e+00 -3.381799207000000251e-01 4.363432550999999937e-01 1.225621811899999969e+00 -5.693680742000000183e-01 -1.989920334600000063e+00 -1.318683063199999950e+00 -7.015269821999999822e-01 5.138112603000000167e-01 -1.526810037000000120e-01 -7.466413769999999395e-02 -8.406865507999999876e-01 -1.292934940699999924e+00 -9.568766569999999361e-02 -3.992881510000000078e-02 -3.713456747000000169e-01 -8.566947604000000327e-01 1.009073134699999930e+00 1.997429566799999945e+00 4.071372562000000195e-01 8.690419448999999741e-01 -1.298656008900000103e+00 -1.216581026200000082e+00 -1.427989836999999929e-01 -4.906499490999999824e-01 -1.813515114299999897e+00 -5.509169220000000033e-02 2.132642986000000129e-01 1.658872298899999986e+00 1.720459860400000096e+00 -1.252613389099999974e+00 -9.119886367999999743e-01 -8.877609982999999927e-01 -3.392012462999999811e-01 3.870434350000000190e-02 -4.835842619999999870e-02 -1.127108410299999974e+00 -6.985203889999999638e-02 1.415693419000000064e-01 1.828522539000000113e-01 8.223757671000000435e-01 -4.077676204999999832e-01 3.803908154000000263e-01 5.665284883000000216e-01 -6.126497921000000346e-01 8.712896603999999989e-01 -1.168653840299999969e+00 -1.965191829099999898e+00 5.800137251000000438e-01 1.869794757099999982e+00 9.343648194000000462e-01 3.552885013000000036e-01 -1.269491517100000078e+00 -6.364033795000000326e-01 -8.285083317000000447e-01 3.338336606999999789e-01 1.506578208000000085e-01 -2.922582745000000259e-01 4.737192164999999844e-01 -2.669028736999999873e-01 2.520282441999999734e-01 -7.533506933000000405e-01 3.005519999999999915e-04 -8.947297932000000120e-01 7.437054199999999782e-02 3.578462313999999922e-01 1.347945335000000078e-01 -2.483406545000000076e-01 -6.738989752999999805e-01 -2.217342130999999938e-01 -6.821473766000000216e-01 -1.038024625500000075e+00 -9.576064088000000307e-01 1.055848498999999996e-01 5.166422931999999912e-01 1.753039929999999913e-02 1.840158131799999985e+00 2.658317343000000110e-01 -1.117505173899999926e+00 7.329659589000000475e-01 -3.335053290000000031e-02 6.996937964999999648e-01 1.362611953400000075e+00 -1.679132315499999972e+00 2.119951777299999840e+00 1.327037610999999950e+00 1.005524094599999918e+00 8.841976218000000554e-01 -5.925315149000000003e-01 5.626737633999999710e-01 -5.192312701000000308e-01 -4.935166907999999908e-01 -1.192456151400000053e+00 -6.308870868000000520e-01 1.559183332999999894e-01 -1.402147488999999914e-01 8.396499174999999537e-01 2.396866907999999907e-01 2.418744636000000059e-01 -1.799255660000000090e-02 -8.461002418999999941e-01 -2.852157729999999988e-02 6.172908127999999772e-01 3.167143174000000005e-01 -5.632223524999999675e-01 -1.304318127000000105e-01 6.450343000999999576e-01 -2.923874938000000090e-01 -9.293227829000000328e-01 1.284204730999999877e-01 1.047439935000000100e+00 -1.742250291000000118e-01 -2.695780277000000003e-01 2.018683185000000047e-01 -1.234046396999999989e-01 3.477046422000000248e-01 3.773039877000000097e-01 2.176564266999999886e-01 -3.763062151000000077e-01 1.787703840000000044e-01 -1.890936749999999889e-01 -2.313731423000000009e-01 9.054724320000000215e-02 1.584019665999999993e-01 -8.231897443000000258e-01 2.212748736000000049e-01 7.484557481000000401e-01 -3.320633592000000189e-01 2.725591449999999888e-02 -2.015215800000000161e-03
-1.198171442200000048e+00 -2.884736484599999873e+00 2.338890169999999907e-02 7.899844323000000390e-01 -3.264309019000000145e-01 1.887112629999999902e-01 2.195446300000000045e-02 -1.110359416199999893e+00 6.997528331000000268e-01 1.506247402599999896e+00 3.035360379300000133e+00 -4.961566458000000179e-01 4.761714709999999989e-02 -4.941863143999999930e-01 4.272788800999999803e-01 -2.548898702099999802e+00 -8.562838024000000159e-01 3.176715799999999933e-03 1.526900572999999872e-01 -8.415408519999999504e-01 -5.623600170000000453e-01 1.303805873199999965e+00 -1.029573172799999936e+00 -1.287073263000000078e-01 4.924303761000000113e-01 -2.364756462000000004e-01 -1.481172202500000035e+00 5.047016099000000144e-01 -2.493612503900000110e+00 1.448086371300000064e+00 -3.474266608000000089e-01 9.026956404000000544e-01 -6.734548523000000175e-01 -3.851496328999999830e-01 7.174940385000000420e-01 1.068711018499999943e+00 -3.105716284999999743e-01 1.082726229199999946e+00 1.373306823500000107e+00 -2.041405078999999900e-01 -6.623780780000000368e-01 5.038572725000000085e-01 -1.869077279699999927e+00 1.043198787599999955e+00 -6.545450536000000374e-01 -4.271992204000000237e-01 7.853057281999999972e-01 -6.687022996999999469e-01 7.694183927000000089e-01 -7.943220255999999813e-01 -5.095374633999999459e-01 -3.370597752999999752e-01 1.992320531000000006e-01 -1.383507078400000090e+00 1.420854177100000060e+00 1.793805267199999998e+00 8.252101549999999452e-01 6.239249417000000131e-01 -2.970496846999999829e-01 4.781850829000000025e-01 -4.599809746999999893e-01 4.604302769999999989e-01 -2.930489794600000142e+00 -4.640843244999999784e-01 -4.796879532000000168e-01 1.395378457300000097e+00 -5.042227100000000288e-03 6.006048035000000063e-01 7.866055980000000170e-02 4.148868186999999930e-01 -8.630678652000000062e-01 -1.258271259500000072e+00 4.680541100000000336e-03 -9.985857890999999542e-01 5.253095123000000033e-01 9.270131703999999750e-01 8.066429482000000428e-01 3.621063915000000133e-01 1.013663747600000109e+00 -5.712396305000000396e-01 1.892084001000000071e-01 5.366336609999999840e-01 1.348076607299999896e+00 -1.499904627999999907e+00 -8.272308176999999541e-01 7.147716849999999345e-02 3.986769870999999910e-01 1.231392005999999983e-01 2.520560880000000115e-01 8.535362096999999926e-01 3.981605409999999790e-01 3.203353319999999865e-02 1.421294979800000080e+00 6.204339774999999557e-01 5.055131461999999853e-01 4.847057879000000180e-01 6.329258497999999955e-01 5.561644923999999879e-01 -7.970461413999999634e-01 -1.325463355000000010e-01 3.766031725000000274e-01 2.273593709999999907e-02 -1.099662213999999943e-01 1.818461998699999915e+00 1.560808031999999956e+00 7.625517674999999773e-01 -1.201975100799999918e+00 -1.204489010599999910e+00 1.473348449800000015e+00 -5.005033274000000310e-01 4.703036285000000150e-01 1.733126743699999972e+00 -7.698785129999999866e-01 -1.383876082000000118e-01 -1.088843099999999980e-01 7.685925361000000011e-01 1.694901827999999999e-01 -8.223793684000000326e-01 -1.439605042999999862e-01 1.764203777100000092e+00 -3.658621918000000139e-01 8.288132051000000056e-01 -8.041074595999999630e-01 1.008149386000000008e-01 -2.286503369000000008e-01 -4.889250437000000060e-01 -1.860912053000000066e-01 -1.337269510000000106e-01 2.863248653000000088e-01 -1.437547804700000098e+00 1.245990682399999994e+00 -5.874346348000000217e-01 1.821184959000000103e-01 -1.529106099999999989e-02 -2.404453114000000002e-01 -1.027863050999999972e+00 2.142954216000000078e-01 3.762808940000000185e-02 1.529625216999999926e-01 3.489509607999999874e-01 1.705762222999999966e-01 -4.286480085000000106e-01 -9.671487859999999825e-02 2.544134829999999958e-02 -4.394262661000000181e-01 -1.304312698199999954e+00 2.564049815000000176e-01 -4.866006860000000184e-02 9.419771229999999995e-02 -2.119773027999999893e-01 9.893814296999999813e-01 1.290528474000000037e-01 -4.919014013999999935e-01 1.018098658700000048e+00 -1.752276658900000061e+00 -1.168912569999999984e-01 3.162587587999999839e-01 5.700572388000000323e-01 1.021187824300000102e+00 -4.989317194999999816e-01 -4.502393370000000172e-01 -2.579310863000000009e-01 8.395764707999999743e-01 3.807592776000000012e-01 3.595303632999999888e-01 -3.665658640000000329e-02 -9.303275117999999511e-01 6.815079240000000427e-01 3.560000049999999944e-02 -5.203796432999999722e-01 -1.348634348899999891e+00 7.121789035000000156e-01 -9.304012185000000157e-01 -2.570268064999999824e-01 1.436429570500000086e+00 -4.594792529000000236e-01 -1.032562135999999936e-01 4.051474794000000101e-01 8.476710246999999976e-01 3.414566111999999820e-01 -1.652559512799999908e+00 6.661867094000000211e-01 -2.602834583399999957e+00 -1.612910011299999891e+00 1.136774842499999938e+00 7.359422689000000295e-01 2.002071869099999901e+00 -8.149510506999999571e-01 1.000538888999999987e+00 -7.262134554000000408e-01 -1.791601159699999890e+00 1.612768219999999864e-01 -9.848812555999999496e-01 -1.854911478999999863e-01 5.385504657999999889e-01 -6.065165827999999815e-01 7.013938290000000242e-01 -1.410353420000000010e-02 4.224901033999999833e-01 -7.185227082999999793e-01 7.777447939999999893e-02 -8.063602587000000543e-01 7.149093886999999814e-01 3.309679093999999822e-01 -8.019957935000000537e-01 3.000170892999999839e-01 3.656095709999999943e-02 4.153078856999999902e-01 -1.009632386300000073e+00 -1.374859357000000060e-01 -7.142860030000000582e-02 -5.413848771000000504e-01 4.515550932999999878e-01 -2.311068391999999971e-01 7.525563498999999767e-01 5.144708493999999854e-01 -8.880328967999999712e-01 3.074384922800000197e+00 -6.803054775000000332e-01 -1.482757821999999948e+00 -2.053081492200000024e+00 8.700024511999999710e-01 6.187473038999999897e-01 9.645535504000000149e-01 2.070100715200000163e+00 -1.349781629800000049e+00 8.539644706000000252e-01 -4.401402130000000024e-01 1.505288326899999918e+00 -7.684011648999999888e-01 1.013789300000000025e-02 8.804395919999999931e-01 -1.054687485999999952e-01 -1.373430209000000013e-01 -9.178869305000000312e-01 5.864733934000000426e-01 3.334967227000000256e-01 -3.554082355000000026e-01 -1.201957414999999946e-01 1.586149116999999997e-01 -9.184184300000000634e-02 -3.322029449999999717e-02 6.155553431000000408e-01 1.279909653500000077e+00 -4.900760358999999844e-01 -1.498467275399999910e+00 -6.336221269999999794e-01 1.405899023899999989e+00 1.829222557600000076e+00 -5.751011196999999964e-01 7.714339164000000304e-01 7.116878329999999642e-02 -4.544980123999999844e-01 1.028738759299999916e+00 -2.038600157999999885e-01 -7.946729798999999650e-01 -5.608093249999999974e-02 -1.198864264800000079e+00 1.067673138399999999e+00 1.914126321099999917e+00 -4.818407704000000069e-01 3.547738460000000177e-02 -4.445058615999999962e-01 4.187160838999999801e-01 -7.459792088000000154e-01 -3.010357069999999857e-01 7.723510914000000227e-01 -2.682266171000000088e-01 -3.603473299999999935e-03 -4.931635522000000216e-01 8.687739341000000337e-01 -9.551763841000000532e-01 5.079665588999999759e-01 -5.862562215000000077e-01 1.056456374499999962e+00 -2.761161549999999881e-02 1.372079699999999985e-02 3.499254981000000098e-01 3.718351261000000241e-01 -7.720833016999999465e-01 5.381005600000000194e-02 4.191501742000000030e-01 -7.819684356999999642e-01 1.777958578000000123e-01 2.608159431000000028e-01 -8.264215369999999838e-02 -2.238346304799999853e+00 7.769208793999999862e-01 5.540198173000000503e-01 -4.112208871999999960e-01 6.376067937999999602e-01 -1.491394083899999945e+00 8.416540200000000027e-02 -2.419147353999999972e-01 6.414244511000000148e-01 7.388246844000000424e-01 -5.471175899999999870e-02 5.508628478000000550e-01 -1.256070013300000010e+00 -2.835546806700000033e+00 6.941004976000000326e-01 -1.658783203300000064e+00 -1.758236800000000100e-02 5.506476232000000470e-01 6.949551778000000457e-01 -1.499116925200000061e+00 -6.121058771999999815e-01 9.706636133999999583e-01 -2.601514968500000080e+00 1.207725981999999976e-01 -8.712905730000000681e-02 1.836481054000000113e-01 8.990769794999999842e-01 -7.131472701000000081e-01 1.494061496000000100e-01 4.937663961000000046e-01 2.090591389999999980e-02 -3.882224150999999956e-01 -3.002703936000000184e-01 1.005154315800000031e+00 1.241119358399999983e+00 -3.713332382000000265e-01 -7.055597099999999511e-01 -6.117232824999999652e-01