rho11.5-121212.lmp (written by ASE) 

1728 	 atoms 
1  atom types
0.0      24.063553659076675  xlo xhi
0.0      24.063553659076675  ylo yhi
0.0      24.063553659076675  zlo zhi


Atoms 

     1   1                       0                       0                       0
     2   1                       0                       0      2.0052961382563894
     3   1                       0                       0      4.0105922765127788
     4   1                       0                       0      6.0158884147691687
     5   1                       0                       0      8.0211845530255577
     6   1                       0                       0      10.026480691281947
     7   1                       0                       0      12.031776829538336
     8   1                       0                       0      14.037072967794725
     9   1                       0                       0      16.042369106051115
    10   1                       0                       0      18.047665244307506
    11   1                       0                       0      20.052961382563893
    12   1                       0                       0      22.058257520820284
    13   1                       0      2.0052961382563894                       0
    14   1                       0      2.0052961382563894      2.0052961382563894
    15   1                       0      2.0052961382563894      4.0105922765127788
    16   1                       0      2.0052961382563894      6.0158884147691687
    17   1                       0      2.0052961382563894      8.0211845530255577
    18   1                       0      2.0052961382563894      10.026480691281947
    19   1                       0      2.0052961382563894      12.031776829538336
    20   1                       0      2.0052961382563894      14.037072967794725
    21   1                       0      2.0052961382563894      16.042369106051115
    22   1                       0      2.0052961382563894      18.047665244307506
    23   1                       0      2.0052961382563894      20.052961382563893
    24   1                       0      2.0052961382563894      22.058257520820284
    25   1                       0      4.0105922765127788                       0
    26   1                       0      4.0105922765127788      2.0052961382563894
    27   1                       0      4.0105922765127788      4.0105922765127788
    28   1                       0      4.0105922765127788      6.0158884147691687
    29   1                       0      4.0105922765127788      8.0211845530255577
    30   1                       0      4.0105922765127788      10.026480691281947
    31   1                       0      4.0105922765127788      12.031776829538336
    32   1                       0      4.0105922765127788      14.037072967794725
    33   1                       0      4.0105922765127788      16.042369106051115
    34   1                       0      4.0105922765127788      18.047665244307506
    35   1                       0      4.0105922765127788      20.052961382563893
    36   1                       0      4.0105922765127788      22.058257520820284
    37   1                       0      6.0158884147691687                       0
    38   1                       0      6.0158884147691687      2.0052961382563894
    39   1                       0      6.0158884147691687      4.0105922765127788
    40   1                       0      6.0158884147691687      6.0158884147691687
    41   1                       0      6.0158884147691687      8.0211845530255577
    42   1                       0      6.0158884147691687      10.026480691281947
    43   1                       0      6.0158884147691687      12.031776829538336
    44   1                       0      6.0158884147691687      14.037072967794725
    45   1                       0      6.0158884147691687      16.042369106051115
    46   1                       0      6.0158884147691687      18.047665244307506
    47   1                       0      6.0158884147691687      20.052961382563893
    48   1                       0      6.0158884147691687      22.058257520820284
    49   1                       0      8.0211845530255577                       0
    50   1                       0      8.0211845530255577      2.0052961382563894
    51   1                       0      8.0211845530255577      4.0105922765127788
    52   1                       0      8.0211845530255577      6.0158884147691687
    53   1                       0      8.0211845530255577      8.0211845530255577
    54   1                       0      8.0211845530255577      10.026480691281947
    55   1                       0      8.0211845530255577      12.031776829538336
    56   1                       0      8.0211845530255577      14.037072967794725
    57   1                       0      8.0211845530255577      16.042369106051115
    58   1                       0      8.0211845530255577      18.047665244307506
    59   1                       0      8.0211845530255577      20.052961382563893
    60   1                       0      8.0211845530255577      22.058257520820284
    61   1                       0      10.026480691281947                       0
    62   1                       0      10.026480691281947      2.0052961382563894
    63   1                       0      10.026480691281947      4.0105922765127788
    64   1                       0      10.026480691281947      6.0158884147691687
    65   1                       0      10.026480691281947      8.0211845530255577
    66   1                       0      10.026480691281947      10.026480691281947
    67   1                       0      10.026480691281947      12.031776829538336
    68   1                       0      10.026480691281947      14.037072967794725
    69   1                       0      10.026480691281947      16.042369106051115
    70   1                       0      10.026480691281947      18.047665244307506
    71   1                       0      10.026480691281947      20.052961382563893
    72   1                       0      10.026480691281947      22.058257520820284
    73   1                       0      12.031776829538336                       0
    74   1                       0      12.031776829538336      2.0052961382563894
    75   1                       0      12.031776829538336      4.0105922765127788
    76   1                       0      12.031776829538336      6.0158884147691687
    77   1                       0      12.031776829538336      8.0211845530255577
    78   1                       0      12.031776829538336      10.026480691281947
    79   1                       0      12.031776829538336      12.031776829538336
    80   1                       0      12.031776829538336      14.037072967794725
    81   1                       0      12.031776829538336      16.042369106051115
    82   1                       0      12.031776829538336      18.047665244307506
    83   1                       0      12.031776829538336      20.052961382563893
    84   1                       0      12.031776829538336      22.058257520820284
    85   1                       0      14.037072967794725                       0
    86   1                       0      14.037072967794725      2.0052961382563894
    87   1                       0      14.037072967794725      4.0105922765127788
    88   1                       0      14.037072967794725      6.0158884147691687
    89   1                       0      14.037072967794725      8.0211845530255577
    90   1                       0      14.037072967794725      10.026480691281947
    91   1                       0      14.037072967794725      12.031776829538336
    92   1                       0      14.037072967794725      14.037072967794725
    93   1                       0      14.037072967794725      16.042369106051115
    94   1                       0      14.037072967794725      18.047665244307506
    95   1                       0      14.037072967794725      20.052961382563893
    96   1                       0      14.037072967794725      22.058257520820284
    97   1                       0      16.042369106051115                       0
    98   1                       0      16.042369106051115      2.0052961382563894
    99   1                       0      16.042369106051115      4.0105922765127788
   100   1                       0      16.042369106051115      6.0158884147691687
   101   1                       0      16.042369106051115      8.0211845530255577
   102   1                       0      16.042369106051115      10.026480691281947
   103   1                       0      16.042369106051115      12.031776829538336
   104   1                       0      16.042369106051115      14.037072967794725
   105   1                       0      16.042369106051115      16.042369106051115
   106   1                       0      16.042369106051115      18.047665244307506
   107   1                       0      16.042369106051115      20.052961382563893
   108   1                       0      16.042369106051115      22.058257520820284
   109   1                       0      18.047665244307506                       0
   110   1                       0      18.047665244307506      2.0052961382563894
   111   1                       0      18.047665244307506      4.0105922765127788
   112   1                       0      18.047665244307506      6.0158884147691687
   113   1                       0      18.047665244307506      8.0211845530255577
   114   1                       0      18.047665244307506      10.026480691281947
   115   1                       0      18.047665244307506      12.031776829538336
   116   1                       0      18.047665244307506      14.037072967794725
   117   1                       0      18.047665244307506      16.042369106051115
   118   1                       0      18.047665244307506      18.047665244307506
   119   1                       0      18.047665244307506      20.052961382563893
   120   1                       0      18.047665244307506      22.058257520820284
   121   1                       0      20.052961382563893                       0
   122   1                       0      20.052961382563893      2.0052961382563894
   123   1                       0      20.052961382563893      4.0105922765127788
   124   1                       0      20.052961382563893      6.0158884147691687
   125   1                       0      20.052961382563893      8.0211845530255577
   126   1                       0      20.052961382563893      10.026480691281947
   127   1                       0      20.052961382563893      12.031776829538336
   128   1                       0      20.052961382563893      14.037072967794725
   129   1                       0      20.052961382563893      16.042369106051115
   130   1                       0      20.052961382563893      18.047665244307506
   131   1                       0      20.052961382563893      20.052961382563893
   132   1                       0      20.052961382563893      22.058257520820284
   133   1                       0      22.058257520820284                       0
   134   1                       0      22.058257520820284      2.0052961382563894
   135   1                       0      22.058257520820284      4.0105922765127788
   136   1                       0      22.058257520820284      6.0158884147691687
   137   1                       0      22.058257520820284      8.0211845530255577
   138   1                       0      22.058257520820284      10.026480691281947
   139   1                       0      22.058257520820284      12.031776829538336
   140   1                       0      22.058257520820284      14.037072967794725
   141   1                       0      22.058257520820284      16.042369106051115
   142   1                       0      22.058257520820284      18.047665244307506
   143   1                       0      22.058257520820284      20.052961382563893
   144   1                       0      22.058257520820284      22.058257520820284
   145   1      2.0052961382563894                       0                       0
   146   1      2.0052961382563894                       0      2.0052961382563894
   147   1      2.0052961382563894                       0      4.0105922765127788
   148   1      2.0052961382563894                       0      6.0158884147691687
   149   1      2.0052961382563894                       0      8.0211845530255577
   150   1      2.0052961382563894                       0      10.026480691281947
   151   1      2.0052961382563894                       0      12.031776829538336
   152   1      2.0052961382563894                       0      14.037072967794725
   153   1      2.0052961382563894                       0      16.042369106051115
   154   1      2.0052961382563894                       0      18.047665244307506
   155   1      2.0052961382563894                       0      20.052961382563893
   156   1      2.0052961382563894                       0      22.058257520820284
   157   1      2.0052961382563894      2.0052961382563894                       0
   158   1      2.0052961382563894      2.0052961382563894      2.0052961382563894
   159   1      2.0052961382563894      2.0052961382563894      4.0105922765127788
   160   1      2.0052961382563894      2.0052961382563894      6.0158884147691687
   161   1      2.0052961382563894      2.0052961382563894      8.0211845530255577
   162   1      2.0052961382563894      2.0052961382563894      10.026480691281947
   163   1      2.0052961382563894      2.0052961382563894      12.031776829538336
   164   1      2.0052961382563894      2.0052961382563894      14.037072967794725
   165   1      2.0052961382563894      2.0052961382563894      16.042369106051115
   166   1      2.0052961382563894      2.0052961382563894      18.047665244307506
   167   1      2.0052961382563894      2.0052961382563894      20.052961382563893
   168   1      2.0052961382563894      2.0052961382563894      22.058257520820284
   169   1      2.0052961382563894      4.0105922765127788                       0
   170   1      2.0052961382563894      4.0105922765127788      2.0052961382563894
   171   1      2.0052961382563894      4.0105922765127788      4.0105922765127788
   172   1      2.0052961382563894      4.0105922765127788      6.0158884147691687
   173   1      2.0052961382563894      4.0105922765127788      8.0211845530255577
   174   1      2.0052961382563894      4.0105922765127788      10.026480691281947
   175   1      2.0052961382563894      4.0105922765127788      12.031776829538336
   176   1      2.0052961382563894      4.0105922765127788      14.037072967794725
   177   1      2.0052961382563894      4.0105922765127788      16.042369106051115
   178   1      2.0052961382563894      4.0105922765127788      18.047665244307506
   179   1      2.0052961382563894      4.0105922765127788      20.052961382563893
   180   1      2.0052961382563894      4.0105922765127788      22.058257520820284
   181   1      2.0052961382563894      6.0158884147691687                       0
   182   1      2.0052961382563894      6.0158884147691687      2.0052961382563894
   183   1      2.0052961382563894      6.0158884147691687      4.0105922765127788
   184   1      2.0052961382563894      6.0158884147691687      6.0158884147691687
   185   1      2.0052961382563894      6.0158884147691687      8.0211845530255577
   186   1      2.0052961382563894      6.0158884147691687      10.026480691281947
   187   1      2.0052961382563894      6.0158884147691687      12.031776829538336
   188   1      2.0052961382563894      6.0158884147691687      14.037072967794725
   189   1      2.0052961382563894      6.0158884147691687      16.042369106051115
   190   1      2.0052961382563894      6.0158884147691687      18.047665244307506
   191   1      2.0052961382563894      6.0158884147691687      20.052961382563893
   192   1      2.0052961382563894      6.0158884147691687      22.058257520820284
   193   1      2.0052961382563894      8.0211845530255577                       0
   194   1      2.0052961382563894      8.0211845530255577      2.0052961382563894
   195   1      2.0052961382563894      8.0211845530255577      4.0105922765127788
   196   1      2.0052961382563894      8.0211845530255577      6.0158884147691687
   197   1      2.0052961382563894      8.0211845530255577      8.0211845530255577
   198   1      2.0052961382563894      8.0211845530255577      10.026480691281947
   199   1      2.0052961382563894      8.0211845530255577      12.031776829538336
   200   1      2.0052961382563894      8.0211845530255577      14.037072967794725
   201   1      2.0052961382563894      8.0211845530255577      16.042369106051115
   202   1      2.0052961382563894      8.0211845530255577      18.047665244307506
   203   1      2.0052961382563894      8.0211845530255577      20.052961382563893
   204   1      2.0052961382563894      8.0211845530255577      22.058257520820284
   205   1      2.0052961382563894      10.026480691281947                       0
   206   1      2.0052961382563894      10.026480691281947      2.0052961382563894
   207   1      2.0052961382563894      10.026480691281947      4.0105922765127788
   208   1      2.0052961382563894      10.026480691281947      6.0158884147691687
   209   1      2.0052961382563894      10.026480691281947      8.0211845530255577
   210   1      2.0052961382563894      10.026480691281947      10.026480691281947
   211   1      2.0052961382563894      10.026480691281947      12.031776829538336
   212   1      2.0052961382563894      10.026480691281947      14.037072967794725
   213   1      2.0052961382563894      10.026480691281947      16.042369106051115
   214   1      2.0052961382563894      10.026480691281947      18.047665244307506
   215   1      2.0052961382563894      10.026480691281947      20.052961382563893
   216   1      2.0052961382563894      10.026480691281947      22.058257520820284
   217   1      2.0052961382563894      12.031776829538336                       0
   218   1      2.0052961382563894      12.031776829538336      2.0052961382563894
   219   1      2.0052961382563894      12.031776829538336      4.0105922765127788
   220   1      2.0052961382563894      12.031776829538336      6.0158884147691687
   221   1      2.0052961382563894      12.031776829538336      8.0211845530255577
   222   1      2.0052961382563894      12.031776829538336      10.026480691281947
   223   1      2.0052961382563894      12.031776829538336      12.031776829538336
   224   1      2.0052961382563894      12.031776829538336      14.037072967794725
   225   1      2.0052961382563894      12.031776829538336      16.042369106051115
   226   1      2.0052961382563894      12.031776829538336      18.047665244307506
   227   1      2.0052961382563894      12.031776829538336      20.052961382563893
   228   1      2.0052961382563894      12.031776829538336      22.058257520820284
   229   1      2.0052961382563894      14.037072967794725                       0
   230   1      2.0052961382563894      14.037072967794725      2.0052961382563894
   231   1      2.0052961382563894      14.037072967794725      4.0105922765127788
   232   1      2.0052961382563894      14.037072967794725      6.0158884147691687
   233   1      2.0052961382563894      14.037072967794725      8.0211845530255577
   234   1      2.0052961382563894      14.037072967794725      10.026480691281947
   235   1      2.0052961382563894      14.037072967794725      12.031776829538336
   236   1      2.0052961382563894      14.037072967794725      14.037072967794725
   237   1      2.0052961382563894      14.037072967794725      16.042369106051115
   238   1      2.0052961382563894      14.037072967794725      18.047665244307506
   239   1      2.0052961382563894      14.037072967794725      20.052961382563893
   240   1      2.0052961382563894      14.037072967794725      22.058257520820284
   241   1      2.0052961382563894      16.042369106051115                       0
   242   1      2.0052961382563894      16.042369106051115      2.0052961382563894
   243   1      2.0052961382563894      16.042369106051115      4.0105922765127788
   244   1      2.0052961382563894      16.042369106051115      6.0158884147691687
   245   1      2.0052961382563894      16.042369106051115      8.0211845530255577
   246   1      2.0052961382563894      16.042369106051115      10.026480691281947
   247   1      2.0052961382563894      16.042369106051115      12.031776829538336
   248   1      2.0052961382563894      16.042369106051115      14.037072967794725
   249   1      2.0052961382563894      16.042369106051115      16.042369106051115
   250   1      2.0052961382563894      16.042369106051115      18.047665244307506
   251   1      2.0052961382563894      16.042369106051115      20.052961382563893
   252   1      2.0052961382563894      16.042369106051115      22.058257520820284
   253   1      2.0052961382563894      18.047665244307506                       0
   254   1      2.0052961382563894      18.047665244307506      2.0052961382563894
   255   1      2.0052961382563894      18.047665244307506      4.0105922765127788
   256   1      2.0052961382563894      18.047665244307506      6.0158884147691687
   257   1      2.0052961382563894      18.047665244307506      8.0211845530255577
   258   1      2.0052961382563894      18.047665244307506      10.026480691281947
   259   1      2.0052961382563894      18.047665244307506      12.031776829538336
   260   1      2.0052961382563894      18.047665244307506      14.037072967794725
   261   1      2.0052961382563894      18.047665244307506      16.042369106051115
   262   1      2.0052961382563894      18.047665244307506      18.047665244307506
   263   1      2.0052961382563894      18.047665244307506      20.052961382563893
   264   1      2.0052961382563894      18.047665244307506      22.058257520820284
   265   1      2.0052961382563894      20.052961382563893                       0
   266   1      2.0052961382563894      20.052961382563893      2.0052961382563894
   267   1      2.0052961382563894      20.052961382563893      4.0105922765127788
   268   1      2.0052961382563894      20.052961382563893      6.0158884147691687
   269   1      2.0052961382563894      20.052961382563893      8.0211845530255577
   270   1      2.0052961382563894      20.052961382563893      10.026480691281947
   271   1      2.0052961382563894      20.052961382563893      12.031776829538336
   272   1      2.0052961382563894      20.052961382563893      14.037072967794725
   273   1      2.0052961382563894      20.052961382563893      16.042369106051115
   274   1      2.0052961382563894      20.052961382563893      18.047665244307506
   275   1      2.0052961382563894      20.052961382563893      20.052961382563893
   276   1      2.0052961382563894      20.052961382563893      22.058257520820284
   277   1      2.0052961382563894      22.058257520820284                       0
   278   1      2.0052961382563894      22.058257520820284      2.0052961382563894
   279   1      2.0052961382563894      22.058257520820284      4.0105922765127788
   280   1      2.0052961382563894      22.058257520820284      6.0158884147691687
   281   1      2.0052961382563894      22.058257520820284      8.0211845530255577
   282   1      2.0052961382563894      22.058257520820284      10.026480691281947
   283   1      2.0052961382563894      22.058257520820284      12.031776829538336
   284   1      2.0052961382563894      22.058257520820284      14.037072967794725
   285   1      2.0052961382563894      22.058257520820284      16.042369106051115
   286   1      2.0052961382563894      22.058257520820284      18.047665244307506
   287   1      2.0052961382563894      22.058257520820284      20.052961382563893
   288   1      2.0052961382563894      22.058257520820284      22.058257520820284
   289   1      4.0105922765127788                       0                       0
   290   1      4.0105922765127788                       0      2.0052961382563894
   291   1      4.0105922765127788                       0      4.0105922765127788
   292   1      4.0105922765127788                       0      6.0158884147691687
   293   1      4.0105922765127788                       0      8.0211845530255577
   294   1      4.0105922765127788                       0      10.026480691281947
   295   1      4.0105922765127788                       0      12.031776829538336
   296   1      4.0105922765127788                       0      14.037072967794725
   297   1      4.0105922765127788                       0      16.042369106051115
   298   1      4.0105922765127788                       0      18.047665244307506
   299   1      4.0105922765127788                       0      20.052961382563893
   300   1      4.0105922765127788                       0      22.058257520820284
   301   1      4.0105922765127788      2.0052961382563894                       0
   302   1      4.0105922765127788      2.0052961382563894      2.0052961382563894
   303   1      4.0105922765127788      2.0052961382563894      4.0105922765127788
   304   1      4.0105922765127788      2.0052961382563894      6.0158884147691687
   305   1      4.0105922765127788      2.0052961382563894      8.0211845530255577
   306   1      4.0105922765127788      2.0052961382563894      10.026480691281947
   307   1      4.0105922765127788      2.0052961382563894      12.031776829538336
   308   1      4.0105922765127788      2.0052961382563894      14.037072967794725
   309   1      4.0105922765127788      2.0052961382563894      16.042369106051115
   310   1      4.0105922765127788      2.0052961382563894      18.047665244307506
   311   1      4.0105922765127788      2.0052961382563894      20.052961382563893
   312   1      4.0105922765127788      2.0052961382563894      22.058257520820284
   313   1      4.0105922765127788      4.0105922765127788                       0
   314   1      4.0105922765127788      4.0105922765127788      2.0052961382563894
   315   1      4.0105922765127788      4.0105922765127788      4.0105922765127788
   316   1      4.0105922765127788      4.0105922765127788      6.0158884147691687
   317   1      4.0105922765127788      4.0105922765127788      8.0211845530255577
   318   1      4.0105922765127788      4.0105922765127788      10.026480691281947
   319   1      4.0105922765127788      4.0105922765127788      12.031776829538336
   320   1      4.0105922765127788      4.0105922765127788      14.037072967794725
   321   1      4.0105922765127788      4.0105922765127788      16.042369106051115
   322   1      4.0105922765127788      4.0105922765127788      18.047665244307506
   323   1      4.0105922765127788      4.0105922765127788      20.052961382563893
   324   1      4.0105922765127788      4.0105922765127788      22.058257520820284
   325   1      4.0105922765127788      6.0158884147691687                       0
   326   1      4.0105922765127788      6.0158884147691687      2.0052961382563894
   327   1      4.0105922765127788      6.0158884147691687      4.0105922765127788
   328   1      4.0105922765127788      6.0158884147691687      6.0158884147691687
   329   1      4.0105922765127788      6.0158884147691687      8.0211845530255577
   330   1      4.0105922765127788      6.0158884147691687      10.026480691281947
   331   1      4.0105922765127788      6.0158884147691687      12.031776829538336
   332   1      4.0105922765127788      6.0158884147691687      14.037072967794725
   333   1      4.0105922765127788      6.0158884147691687      16.042369106051115
   334   1      4.0105922765127788      6.0158884147691687      18.047665244307506
   335   1      4.0105922765127788      6.0158884147691687      20.052961382563893
   336   1      4.0105922765127788      6.0158884147691687      22.058257520820284
   337   1      4.0105922765127788      8.0211845530255577                       0
   338   1      4.0105922765127788      8.0211845530255577      2.0052961382563894
   339   1      4.0105922765127788      8.0211845530255577      4.0105922765127788
   340   1      4.0105922765127788      8.0211845530255577      6.0158884147691687
   341   1      4.0105922765127788      8.0211845530255577      8.0211845530255577
   342   1      4.0105922765127788      8.0211845530255577      10.026480691281947
   343   1      4.0105922765127788      8.0211845530255577      12.031776829538336
   344   1      4.0105922765127788      8.0211845530255577      14.037072967794725
   345   1      4.0105922765127788      8.0211845530255577      16.042369106051115
   346   1      4.0105922765127788      8.0211845530255577      18.047665244307506
   347   1      4.0105922765127788      8.0211845530255577      20.052961382563893
   348   1      4.0105922765127788      8.0211845530255577      22.058257520820284
   349   1      4.0105922765127788      10.026480691281947                       0
   350   1      4.0105922765127788      10.026480691281947      2.0052961382563894
   351   1      4.0105922765127788      10.026480691281947      4.0105922765127788
   352   1      4.0105922765127788      10.026480691281947      6.0158884147691687
   353   1      4.0105922765127788      10.026480691281947      8.0211845530255577
   354   1      4.0105922765127788      10.026480691281947      10.026480691281947
   355   1      4.0105922765127788      10.026480691281947      12.031776829538336
   356   1      4.0105922765127788      10.026480691281947      14.037072967794725
   357   1      4.0105922765127788      10.026480691281947      16.042369106051115
   358   1      4.0105922765127788      10.026480691281947      18.047665244307506
   359   1      4.0105922765127788      10.026480691281947      20.052961382563893