rho13.0-121212.lmp (written by ASE) 

1728 	 atoms 
1  atom types
0.0      23.099961683906692  xlo xhi
0.0      23.099961683906692  ylo yhi
0.0      23.099961683906692  zlo zhi


Atoms 

     1   1                       0                       0                       0
     2   1                       0                       0      1.9249968069922245
     3   1                       0                       0      3.8499936139844491
     4   1                       0                       0      5.7749904209766729
     5   1                       0                       0      7.6999872279688981
     6   1                       0                       0      9.6249840349611215
     7   1                       0                       0      11.549980841953344
     8   1                       0                       0      13.474977648945568
     9   1                       0                       0      15.399974455937796
    10   1                       0                       0      17.324971262930021
    11   1                       0                       0      19.249968069922243
    12   1                       0                       0      21.174964876914466
    13   1                       0      1.9249968069922245                       0
    14   1                       0      1.9249968069922245      1.9249968069922245
    15   1                       0      1.9249968069922245      3.8499936139844491
    16   1                       0      1.9249968069922245      5.7749904209766729
    17   1                       0      1.9249968069922245      7.6999872279688981
    18   1                       0      1.9249968069922245      9.6249840349611215
    19   1                       0      1.9249968069922245      11.549980841953344
    20   1                       0      1.9249968069922245      13.474977648945568
    21   1                       0      1.9249968069922245      15.399974455937796
    22   1                       0      1.9249968069922245      17.324971262930021
    23   1                       0      1.9249968069922245      19.249968069922243
    24   1                       0      1.9249968069922245      21.174964876914466
    25   1                       0      3.8499936139844491                       0
    26   1                       0      3.8499936139844491      1.9249968069922245
    27   1                       0      3.8499936139844491      3.8499936139844491
    28   1                       0      3.8499936139844491      5.7749904209766729
    29   1                       0      3.8499936139844491      7.6999872279688981
    30   1                       0      3.8499936139844491      9.6249840349611215
    31   1                       0      3.8499936139844491      11.549980841953344
    32   1                       0      3.8499936139844491      13.474977648945568
    33   1                       0      3.8499936139844491      15.399974455937796
    34   1                       0      3.8499936139844491      17.324971262930021
    35   1                       0      3.8499936139844491      19.249968069922243
    36   1                       0      3.8499936139844491      21.174964876914466
    37   1                       0      5.7749904209766729                       0
    38   1                       0      5.7749904209766729      1.9249968069922245
    39   1                       0      5.7749904209766729      3.8499936139844491
    40   1                       0      5.7749904209766729      5.7749904209766729
    41   1                       0      5.7749904209766729      7.6999872279688981
    42   1                       0      5.7749904209766729      9.6249840349611215
    43   1                       0      5.7749904209766729      11.549980841953344
    44   1                       0      5.7749904209766729      13.474977648945568
    45   1                       0      5.7749904209766729      15.399974455937796
    46   1                       0      5.7749904209766729      17.324971262930021
    47   1                       0      5.7749904209766729      19.249968069922243
    48   1                       0      5.7749904209766729      21.174964876914466
    49   1                       0      7.6999872279688981                       0
    50   1                       0      7.6999872279688981      1.9249968069922245
    51   1                       0      7.6999872279688981      3.8499936139844491
    52   1                       0      7.6999872279688981      5.7749904209766729
    53   1                       0      7.6999872279688981      7.6999872279688981
    54   1                       0      7.6999872279688981      9.6249840349611215
    55   1                       0      7.6999872279688981      11.549980841953344
    56   1                       0      7.6999872279688981      13.474977648945568
    57   1                       0      7.6999872279688981      15.399974455937796
    58   1                       0      7.6999872279688981      17.324971262930021
    59   1                       0      7.6999872279688981      19.249968069922243
    60   1                       0      7.6999872279688981      21.174964876914466
    61   1                       0      9.6249840349611215                       0
    62   1                       0      9.6249840349611215      1.9249968069922245
    63   1                       0      9.6249840349611215      3.8499936139844491
    64   1                       0      9.6249840349611215      5.7749904209766729
    65   1                       0      9.6249840349611215      7.6999872279688981
    66   1                       0      9.6249840349611215      9.6249840349611215
    67   1                       0      9.6249840349611215      11.549980841953344
    68   1                       0      9.6249840349611215      13.474977648945568
    69   1                       0      9.6249840349611215      15.399974455937796
    70   1                       0      9.6249840349611215      17.324971262930021
    71   1                       0      9.6249840349611215      19.249968069922243
    72   1                       0      9.6249840349611215      21.174964876914466
    73   1                       0      11.549980841953344                       0
    74   1                       0      11.549980841953344      1.9249968069922245
    75   1                       0      11.549980841953344      3.8499936139844491
    76   1                       0      11.549980841953344      5.7749904209766729
    77   1                       0      11.549980841953344      7.6999872279688981
    78   1                       0      11.549980841953344      9.6249840349611215
    79   1                       0      11.549980841953344      11.549980841953344
    80   1                       0      11.549980841953344      13.474977648945568
    81   1                       0      11.549980841953344      15.399974455937796
    82   1                       0      11.549980841953344      17.324971262930021
    83   1                       0      11.549980841953344      19.249968069922243
    84   1                       0      11.549980841953344      21.174964876914466
    85   1                       0      13.474977648945568                       0
    86   1                       0      13.474977648945568      1.9249968069922245
    87   1                       0      13.474977648945568      3.8499936139844491
    88   1                       0      13.474977648945568      5.7749904209766729
    89   1                       0      13.474977648945568      7.6999872279688981
    90   1                       0      13.474977648945568      9.6249840349611215
    91   1                       0      13.474977648945568      11.549980841953344
    92   1                       0      13.474977648945568      13.474977648945568
    93   1                       0      13.474977648945568      15.399974455937796
    94   1                       0      13.474977648945568      17.324971262930021
    95   1                       0      13.474977648945568      19.249968069922243
    96   1                       0      13.474977648945568      21.174964876914466
    97   1                       0      15.399974455937796                       0
    98   1                       0      15.399974455937796      1.9249968069922245
    99   1                       0      15.399974455937796      3.8499936139844491
   100   1                       0      15.399974455937796      5.7749904209766729
   101   1                       0      15.399974455937796      7.6999872279688981
   102   1                       0      15.399974455937796      9.6249840349611215
   103   1                       0      15.399974455937796      11.549980841953344
   104   1                       0      15.399974455937796      13.474977648945568
   105   1                       0      15.399974455937796      15.399974455937796
   106   1                       0      15.399974455937796      17.324971262930021
   107   1                       0      15.399974455937796      19.249968069922243
   108   1                       0      15.399974455937796      21.174964876914466
   109   1                       0      17.324971262930021                       0
   110   1                       0      17.324971262930021      1.9249968069922245
   111   1                       0      17.324971262930021      3.8499936139844491
   112   1                       0      17.324971262930021      5.7749904209766729
   113   1                       0      17.324971262930021      7.6999872279688981
   114   1                       0      17.324971262930021      9.6249840349611215
   115   1                       0      17.324971262930021      11.549980841953344
   116   1                       0      17.324971262930021      13.474977648945568
   117   1                       0      17.324971262930021      15.399974455937796
   118   1                       0      17.324971262930021      17.324971262930021
   119   1                       0      17.324971262930021      19.249968069922243
   120   1                       0      17.324971262930021      21.174964876914466
   121   1                       0      19.249968069922243                       0
   122   1                       0      19.249968069922243      1.9249968069922245
   123   1                       0      19.249968069922243      3.8499936139844491
   124   1                       0      19.249968069922243      5.7749904209766729
   125   1                       0      19.249968069922243      7.6999872279688981
   126   1                       0      19.249968069922243      9.6249840349611215
   127   1                       0      19.249968069922243      11.549980841953344
   128   1                       0      19.249968069922243      13.474977648945568
   129   1                       0      19.249968069922243      15.399974455937796
   130   1                       0      19.249968069922243      17.324971262930021
   131   1                       0      19.249968069922243      19.249968069922243
   132   1                       0      19.249968069922243      21.174964876914466
   133   1                       0      21.174964876914466                       0
   134   1                       0      21.174964876914466      1.9249968069922245
   135   1                       0      21.174964876914466      3.8499936139844491
   136   1                       0      21.174964876914466      5.7749904209766729
   137   1                       0      21.174964876914466      7.6999872279688981
   138   1                       0      21.174964876914466      9.6249840349611215
   139   1                       0      21.174964876914466      11.549980841953344
   140   1                       0      21.174964876914466      13.474977648945568
   141   1                       0      21.174964876914466      15.399974455937796
   142   1                       0      21.174964876914466      17.324971262930021
   143   1                       0      21.174964876914466      19.249968069922243
   144   1                       0      21.174964876914466      21.174964876914466
   145   1      1.9249968069922245                       0                       0
   146   1      1.9249968069922245                       0      1.9249968069922245
   147   1      1.9249968069922245                       0      3.8499936139844491
   148   1      1.9249968069922245                       0      5.7749904209766729
   149   1      1.9249968069922245                       0      7.6999872279688981
   150   1      1.9249968069922245                       0      9.6249840349611215
   151   1      1.9249968069922245                       0      11.549980841953344
   152   1      1.9249968069922245                       0      13.474977648945568
   153   1      1.9249968069922245                       0      15.399974455937796
   154   1      1.9249968069922245                       0      17.324971262930021
   155   1      1.9249968069922245                       0      19.249968069922243
   156   1      1.9249968069922245                       0      21.174964876914466
   157   1      1.9249968069922245      1.9249968069922245                       0
   158   1      1.9249968069922245      1.9249968069922245      1.9249968069922245
   159   1      1.9249968069922245      1.9249968069922245      3.8499936139844491
   160   1      1.9249968069922245      1.9249968069922245      5.7749904209766729
   161   1      1.9249968069922245      1.9249968069922245      7.6999872279688981
   162   1      1.9249968069922245      1.9249968069922245      9.6249840349611215
   163   1      1.9249968069922245      1.9249968069922245      11.549980841953344
   164   1      1.9249968069922245      1.9249968069922245      13.474977648945568
   165   1      1.9249968069922245      1.9249968069922245      15.399974455937796
   166   1      1.9249968069922245      1.9249968069922245      17.324971262930021
   167   1      1.9249968069922245      1.9249968069922245      19.249968069922243
   168   1      1.9249968069922245      1.9249968069922245      21.174964876914466
   169   1      1.9249968069922245      3.8499936139844491                       0
   170   1      1.9249968069922245      3.8499936139844491      1.9249968069922245
   171   1      1.9249968069922245      3.8499936139844491      3.8499936139844491
   172   1      1.9249968069922245      3.8499936139844491      5.7749904209766729
   173   1      1.9249968069922245      3.8499936139844491      7.6999872279688981
   174   1      1.9249968069922245      3.8499936139844491      9.6249840349611215
   175   1      1.9249968069922245      3.8499936139844491      11.549980841953344
   176   1      1.9249968069922245      3.8499936139844491      13.474977648945568
   177   1      1.9249968069922245      3.8499936139844491      15.399974455937796
   178   1      1.9249968069922245      3.8499936139844491      17.324971262930021
   179   1      1.9249968069922245      3.8499936139844491      19.249968069922243
   180   1      1.9249968069922245      3.8499936139844491      21.174964876914466
   181   1      1.9249968069922245      5.7749904209766729                       0
   182   1      1.9249968069922245      5.7749904209766729      1.9249968069922245
   183   1      1.9249968069922245      5.7749904209766729      3.8499936139844491
   184   1      1.9249968069922245      5.7749904209766729      5.7749904209766729
   185   1      1.9249968069922245      5.7749904209766729      7.6999872279688981
   186   1      1.9249968069922245      5.7749904209766729      9.6249840349611215
   187   1      1.9249968069922245      5.7749904209766729      11.549980841953344
   188   1      1.9249968069922245      5.7749904209766729      13.474977648945568
   189   1      1.9249968069922245      5.7749904209766729      15.399974455937796
   190   1      1.9249968069922245      5.7749904209766729      17.324971262930021
   191   1      1.9249968069922245      5.7749904209766729      19.249968069922243
   192   1      1.9249968069922245      5.7749904209766729      21.174964876914466
   193   1      1.9249968069922245      7.6999872279688981                       0
   194   1      1.9249968069922245      7.6999872279688981      1.9249968069922245
   195   1      1.9249968069922245      7.6999872279688981      3.8499936139844491
   196   1      1.9249968069922245      7.6999872279688981      5.7749904209766729
   197   1      1.9249968069922245      7.6999872279688981      7.6999872279688981
   198   1      1.9249968069922245      7.6999872279688981      9.6249840349611215
   199   1      1.9249968069922245      7.6999872279688981      11.549980841953344
   200   1      1.9249968069922245      7.6999872279688981      13.474977648945568
   201   1      1.9249968069922245      7.6999872279688981      15.399974455937796
   202   1      1.9249968069922245      7.6999872279688981      17.324971262930021
   203   1      1.9249968069922245      7.6999872279688981      19.249968069922243
   204   1      1.9249968069922245      7.6999872279688981      21.174964876914466
   205   1      1.9249968069922245      9.6249840349611215                       0
   206   1      1.9249968069922245      9.6249840349611215      1.9249968069922245
   207   1      1.9249968069922245      9.6249840349611215      3.8499936139844491
   208   1      1.9249968069922245      9.6249840349611215      5.7749904209766729
   209   1      1.9249968069922245      9.6249840349611215      7.6999872279688981
   210   1      1.9249968069922245      9.6249840349611215      9.6249840349611215
   211   1      1.9249968069922245      9.6249840349611215      11.549980841953344
   212   1      1.9249968069922245      9.6249840349611215      13.474977648945568
   213   1      1.9249968069922245      9.6249840349611215      15.399974455937796
   214   1      1.9249968069922245      9.6249840349611215      17.324971262930021
   215   1      1.9249968069922245      9.6249840349611215      19.249968069922243
   216   1      1.9249968069922245      9.6249840349611215      21.174964876914466
   217   1      1.9249968069922245      11.549980841953344                       0
   218   1      1.9249968069922245      11.549980841953344      1.9249968069922245
   219   1      1.9249968069922245      11.549980841953344      3.8499936139844491
   220   1      1.9249968069922245      11.549980841953344      5.7749904209766729
   221   1      1.9249968069922245      11.549980841953344      7.6999872279688981
   222   1      1.9249968069922245      11.549980841953344      9.6249840349611215
   223   1      1.9249968069922245      11.549980841953344      11.549980841953344
   224   1      1.9249968069922245      11.549980841953344      13.474977648945568
   225   1      1.9249968069922245      11.549980841953344      15.399974455937796
   226   1      1.9249968069922245      11.549980841953344      17.324971262930021
   227   1      1.9249968069922245      11.549980841953344      19.249968069922243
   228   1      1.9249968069922245      11.549980841953344      21.174964876914466
   229   1      1.9249968069922245      13.474977648945568                       0
   230   1      1.9249968069922245      13.474977648945568      1.9249968069922245
   231   1      1.9249968069922245      13.474977648945568      3.8499936139844491
   232   1      1.9249968069922245      13.474977648945568      5.7749904209766729
   233   1      1.9249968069922245      13.474977648945568      7.6999872279688981
   234   1      1.9249968069922245      13.474977648945568      9.6249840349611215
   235   1      1.9249968069922245      13.474977648945568      11.549980841953344
   236   1      1.9249968069922245      13.474977648945568      13.474977648945568
   237   1      1.9249968069922245      13.474977648945568      15.399974455937796
   238   1      1.9249968069922245      13.474977648945568      17.324971262930021
   239   1      1.9249968069922245      13.474977648945568      19.249968069922243
   240   1      1.9249968069922245      13.474977648945568      21.174964876914466
   241   1      1.9249968069922245      15.399974455937796                       0
   242   1      1.9249968069922245      15.399974455937796      1.9249968069922245
   243   1      1.9249968069922245      15.399974455937796      3.8499936139844491
   244   1      1.9249968069922245      15.399974455937796      5.7749904209766729
   245   1      1.9249968069922245      15.399974455937796      7.6999872279688981
   246   1      1.9249968069922245      15.399974455937796      9.6249840349611215
   247   1      1.9249968069922245      15.399974455937796      11.549980841953344
   248   1      1.9249968069922245      15.399974455937796      13.474977648945568
   249   1      1.9249968069922245      15.399974455937796      15.399974455937796
   250   1      1.9249968069922245      15.399974455937796      17.324971262930021
   251   1      1.9249968069922245      15.399974455937796      19.249968069922243
   252   1      1.9249968069922245      15.399974455937796      21.174964876914466
   253   1      1.9249968069922245      17.324971262930021                       0
   254   1      1.9249968069922245      17.324971262930021      1.9249968069922245
   255   1      1.9249968069922245      17.324971262930021      3.8499936139844491
   256   1      1.9249968069922245      17.324971262930021      5.7749904209766729
   257   1      1.9249968069922245      17.324971262930021      7.6999872279688981
   258   1      1.9249968069922245      17.324971262930021      9.6249840349611215
   259   1      1.9249968069922245      17.324971262930021      11.549980841953344
   260   1      1.9249968069922245      17.324971262930021      13.474977648945568
   261   1      1.9249968069922245      17.324971262930021      15.399974455937796
   262   1      1.9249968069922245      17.324971262930021      17.324971262930021
   263   1      1.9249968069922245      17.324971262930021      19.249968069922243
   264   1      1.9249968069922245      17.324971262930021      21.174964876914466
   265   1      1.9249968069922245      19.249968069922243                       0
   266   1      1.9249968069922245      19.249968069922243      1.9249968069922245
   267   1      1.9249968069922245      19.249968069922243      3.8499936139844491
   268   1      1.9249968069922245      19.249968069922243      5.7749904209766729
   269   1      1.9249968069922245      19.249968069922243      7.6999872279688981
   270   1      1.9249968069922245      19.249968069922243      9.6249840349611215
   271   1      1.9249968069922245      19.249968069922243      11.549980841953344
   272   1      1.9249968069922245      19.249968069922243      13.474977648945568
   273   1      1.9249968069922245      19.249968069922243      15.399974455937796
   274   1      1.9249968069922245      19.249968069922243      17.324971262930021
   275   1      1.9249968069922245      19.249968069922243      19.249968069922243
   276   1      1.9249968069922245      19.249968069922243      21.174964876914466
   277   1      1.9249968069922245      21.174964876914466                       0
   278   1      1.9249968069922245      21.174964876914466      1.9249968069922245
   279   1      1.9249968069922245      21.174964876914466      3.8499936139844491
   280   1      1.9249968069922245      21.174964876914466      5.7749904209766729
   281   1      1.9249968069922245      21.174964876914466      7.6999872279688981
   282   1      1.9249968069922245      21.174964876914466      9.6249840349611215
   283   1      1.9249968069922245      21.174964876914466      11.549980841953344
   284   1      1.9249968069922245      21.174964876914466      13.474977648945568
   285   1      1.9249968069922245      21.174964876914466      15.399974455937796
   286   1      1.9249968069922245      21.174964876914466      17.324971262930021
   287   1      1.9249968069922245      21.174964876914466      19.249968069922243
   288   1      1.9249968069922245      21.174964876914466      21.174964876914466
   289   1      3.8499936139844491                       0                       0
   290   1      3.8499936139844491                       0      1.9249968069922245
   291   1      3.8499936139844491                       0      3.8499936139844491
   292   1      3.8499936139844491                       0      5.7749904209766729
   293   1      3.8499936139844491                       0      7.6999872279688981
   294   1      3.8499936139844491                       0      9.6249840349611215
   295   1      3.8499936139844491                       0      11.549980841953344
   296   1      3.8499936139844491                       0      13.474977648945568
   297   1      3.8499936139844491                       0      15.399974455937796
   298   1      3.8499936139844491                       0      17.324971262930021
   299   1      3.8499936139844491                       0      19.249968069922243
   300   1      3.8499936139844491                       0      21.174964876914466
   301   1      3.8499936139844491      1.9249968069922245                       0
   302   1      3.8499936139844491      1.9249968069922245      1.9249968069922245
   303   1      3.8499936139844491      1.9249968069922245      3.8499936139844491
   304   1      3.8499936139844491      1.9249968069922245      5.7749904209766729
   305   1      3.8499936139844491      1.9249968069922245      7.6999872279688981
   306   1      3.8499936139844491      1.9249968069922245      9.6249840349611215
   307   1      3.8499936139844491      1.9249968069922245      11.549980841953344
   308   1      3.8499936139844491      1.9249968069922245      13.474977648945568
   309   1      3.8499936139844491      1.9249968069922245      15.399974455937796
   310   1      3.8499936139844491      1.9249968069922245      17.324971262930021
   311   1      3.8499936139844491      1.9249968069922245      19.249968069922243
   312   1      3.8499936139844491      1.9249968069922245      21.174964876914466
   313   1      3.8499936139844491      3.8499936139844491                       0
   314   1      3.8499936139844491      3.8499936139844491      1.9249968069922245
   315   1      3.8499936139844491      3.8499936139844491      3.8499936139844491
   316   1      3.8499936139844491      3.8499936139844491      5.7749904209766729
   317   1      3.8499936139844491      3.8499936139844491      7.6999872279688981
   318   1      3.8499936139844491      3.8499936139844491      9.6249840349611215
   319   1      3.8499936139844491      3.8499936139844491      11.549980841953344
   320   1      3.8499936139844491      3.8499936139844491      13.474977648945568
   321   1      3.8499936139844491      3.8499936139844491      15.399974455937796
   322   1      3.8499936139844491      3.8499936139844491      17.324971262930021
   323   1      3.8499936139844491      3.8499936139844491      19.249968069922243
   324   1      3.8499936139844491      3.8499936139844491      21.174964876914466
   325   1      3.8499936139844491      5.7749904209766729                       0
   326   1      3.8499936139844491      5.7749904209766729      1.9249968069922245
   327   1      3.8499936139844491      5.7749904209766729      3.8499936139844491
   328   1      3.8499936139844491      5.7749904209766729      5.7749904209766729
   329   1      3.8499936139844491      5.7749904209766729      7.6999872279688981
   330   1      3.8499936139844491      5.7749904209766729      9.6249840349611215
   331   1      3.8499936139844491      5.7749904209766729      11.549980841953344
   332   1      3.8499936139844491      5.7749904209766729      13.474977648945568
   333   1      3.8499936139844491      5.7749904209766729      15.399974455937796
   334   1      3.8499936139844491      5.7749904209766729      17.324971262930021
   335   1      3.8499936139844491      5.7749904209766729      19.249968069922243
   336   1      3.8499936139844491      5.7749904209766729      21.174964876914466
   337   1      3.8499936139844491      7.6999872279688981                       0
   338   1      3.8499936139844491      7.6999872279688981      1.9249968069922245
   339   1      3.8499936139844491      7.6999872279688981      3.8499936139844491
   340   1      3.8499936139844491      7.6999872279688981      5.7749904209766729
   341   1      3.8499936139844491      7.6999872279688981      7.6999872279688981
   342   1      3.8499936139844491      7.6999872279688981      9.6249840349611215
   343   1      3.8499936139844491      7.6999872279688981      11.549980841953344
   344   1      3.8499936139844491      7.6999872279688981      13.474977648945568
   345   1      3.8499936139844491      7.6999872279688981      15.399974455937796
   346   1      3.8499936139844491      7.6999872279688981      17.324971262930021
   347   1      3.8499936139844491      7.6999872279688981      19.249968069922243
   348   1      3.8499936139844491      7.6999872279688981      21.174964876914466
   349   1      3.8499936139844491      9.6249840349611215                       0
   350   1      3.8499936139844491      9.6249840349611215      1.9249968069922245
   351   1      3.8499936139844491      9.6249840349611215      3.8499936139844491
   352   1      3.8499936139844491      9.6249840349611215      5.7749904209766729
   353   1      3.8499936139844491      9.6249840349611215      7.6999872279688981
   354   1      3.8499936139844491      9.6249840349611215      9.6249840349611215
   355   1      3.8499936139844491      9.6249840349611215      11.549980841953344
   356   1      3.8499936139844491      9.6249840349611215      13.474977648945568
   357   1      3.8499936139844491      9.6249840349611215      15.399974455937796
   358   1      3.8499936139844491      9.6249840349611215      17.324971262930021
   359   1      3.8499936139844491      9.6249840349611215      19.249968069922243