rho12.0-121212.lmp (written by ASE) 

1728 	 atoms 
1  atom types
0.0      23.724585216672381  xlo xhi
0.0      23.724585216672381  ylo yhi
0.0      23.724585216672381  zlo zhi


Atoms 

     1   1                       0                       0                       0
     2   1                       0                       0      1.9770487680560316
     3   1                       0                       0      3.9540975361120632
     4   1                       0                       0      5.9311463041680952
     5   1                       0                       0      7.9081950722241263
     6   1                       0                       0      9.8852438402801557
     7   1                       0                       0      11.862292608336189
     8   1                       0                       0       13.83934137639222
     9   1                       0                       0      15.816390144448253
    10   1                       0                       0      17.793438912504286
    11   1                       0                       0      19.770487680560311
    12   1                       0                       0      21.747536448616348
    13   1                       0      1.9770487680560316                       0
    14   1                       0      1.9770487680560316      1.9770487680560316
    15   1                       0      1.9770487680560316      3.9540975361120632
    16   1                       0      1.9770487680560316      5.9311463041680952
    17   1                       0      1.9770487680560316      7.9081950722241263
    18   1                       0      1.9770487680560316      9.8852438402801557
    19   1                       0      1.9770487680560316      11.862292608336189
    20   1                       0      1.9770487680560316       13.83934137639222
    21   1                       0      1.9770487680560316      15.816390144448253
    22   1                       0      1.9770487680560316      17.793438912504286
    23   1                       0      1.9770487680560316      19.770487680560311
    24   1                       0      1.9770487680560316      21.747536448616348
    25   1                       0      3.9540975361120632                       0
    26   1                       0      3.9540975361120632      1.9770487680560316
    27   1                       0      3.9540975361120632      3.9540975361120632
    28   1                       0      3.9540975361120632      5.9311463041680952
    29   1                       0      3.9540975361120632      7.9081950722241263
    30   1                       0      3.9540975361120632      9.8852438402801557
    31   1                       0      3.9540975361120632      11.862292608336189
    32   1                       0      3.9540975361120632       13.83934137639222
    33   1                       0      3.9540975361120632      15.816390144448253
    34   1                       0      3.9540975361120632      17.793438912504286
    35   1                       0      3.9540975361120632      19.770487680560311
    36   1                       0      3.9540975361120632      21.747536448616348
    37   1                       0      5.9311463041680952                       0
    38   1                       0      5.9311463041680952      1.9770487680560316
    39   1                       0      5.9311463041680952      3.9540975361120632
    40   1                       0      5.9311463041680952      5.9311463041680952
    41   1                       0      5.9311463041680952      7.9081950722241263
    42   1                       0      5.9311463041680952      9.8852438402801557
    43   1                       0      5.9311463041680952      11.862292608336189
    44   1                       0      5.9311463041680952       13.83934137639222
    45   1                       0      5.9311463041680952      15.816390144448253
    46   1                       0      5.9311463041680952      17.793438912504286
    47   1                       0      5.9311463041680952      19.770487680560311
    48   1                       0      5.9311463041680952      21.747536448616348
    49   1                       0      7.9081950722241263                       0
    50   1                       0      7.9081950722241263      1.9770487680560316
    51   1                       0      7.9081950722241263      3.9540975361120632
    52   1                       0      7.9081950722241263      5.9311463041680952
    53   1                       0      7.9081950722241263      7.9081950722241263
    54   1                       0      7.9081950722241263      9.8852438402801557
    55   1                       0      7.9081950722241263      11.862292608336189
    56   1                       0      7.9081950722241263       13.83934137639222
    57   1                       0      7.9081950722241263      15.816390144448253
    58   1                       0      7.9081950722241263      17.793438912504286
    59   1                       0      7.9081950722241263      19.770487680560311
    60   1                       0      7.9081950722241263      21.747536448616348
    61   1                       0      9.8852438402801557                       0
    62   1                       0      9.8852438402801557      1.9770487680560316
    63   1                       0      9.8852438402801557      3.9540975361120632
    64   1                       0      9.8852438402801557      5.9311463041680952
    65   1                       0      9.8852438402801557      7.9081950722241263
    66   1                       0      9.8852438402801557      9.8852438402801557
    67   1                       0      9.8852438402801557      11.862292608336189
    68   1                       0      9.8852438402801557       13.83934137639222
    69   1                       0      9.8852438402801557      15.816390144448253
    70   1                       0      9.8852438402801557      17.793438912504286
    71   1                       0      9.8852438402801557      19.770487680560311
    72   1                       0      9.8852438402801557      21.747536448616348
    73   1                       0      11.862292608336189                       0
    74   1                       0      11.862292608336189      1.9770487680560316
    75   1                       0      11.862292608336189      3.9540975361120632
    76   1                       0      11.862292608336189      5.9311463041680952
    77   1                       0      11.862292608336189      7.9081950722241263
    78   1                       0      11.862292608336189      9.8852438402801557
    79   1                       0      11.862292608336189      11.862292608336189
    80   1                       0      11.862292608336189       13.83934137639222
    81   1                       0      11.862292608336189      15.816390144448253
    82   1                       0      11.862292608336189      17.793438912504286
    83   1                       0      11.862292608336189      19.770487680560311
    84   1                       0      11.862292608336189      21.747536448616348
    85   1                       0       13.83934137639222                       0
    86   1                       0       13.83934137639222      1.9770487680560316
    87   1                       0       13.83934137639222      3.9540975361120632
    88   1                       0       13.83934137639222      5.9311463041680952
    89   1                       0       13.83934137639222      7.9081950722241263
    90   1                       0       13.83934137639222      9.8852438402801557
    91   1                       0       13.83934137639222      11.862292608336189
    92   1                       0       13.83934137639222       13.83934137639222
    93   1                       0       13.83934137639222      15.816390144448253
    94   1                       0       13.83934137639222      17.793438912504286
    95   1                       0       13.83934137639222      19.770487680560311
    96   1                       0       13.83934137639222      21.747536448616348
    97   1                       0      15.816390144448253                       0
    98   1                       0      15.816390144448253      1.9770487680560316
    99   1                       0      15.816390144448253      3.9540975361120632
   100   1                       0      15.816390144448253      5.9311463041680952
   101   1                       0      15.816390144448253      7.9081950722241263
   102   1                       0      15.816390144448253      9.8852438402801557
   103   1                       0      15.816390144448253      11.862292608336189
   104   1                       0      15.816390144448253       13.83934137639222
   105   1                       0      15.816390144448253      15.816390144448253
   106   1                       0      15.816390144448253      17.793438912504286
   107   1                       0      15.816390144448253      19.770487680560311
   108   1                       0      15.816390144448253      21.747536448616348
   109   1                       0      17.793438912504286                       0
   110   1                       0      17.793438912504286      1.9770487680560316
   111   1                       0      17.793438912504286      3.9540975361120632
   112   1                       0      17.793438912504286      5.9311463041680952
   113   1                       0      17.793438912504286      7.9081950722241263
   114   1                       0      17.793438912504286      9.8852438402801557
   115   1                       0      17.793438912504286      11.862292608336189
   116   1                       0      17.793438912504286       13.83934137639222
   117   1                       0      17.793438912504286      15.816390144448253
   118   1                       0      17.793438912504286      17.793438912504286
   119   1                       0      17.793438912504286      19.770487680560311
   120   1                       0      17.793438912504286      21.747536448616348
   121   1                       0      19.770487680560311                       0
   122   1                       0      19.770487680560311      1.9770487680560316
   123   1                       0      19.770487680560311      3.9540975361120632
   124   1                       0      19.770487680560311      5.9311463041680952
   125   1                       0      19.770487680560311      7.9081950722241263
   126   1                       0      19.770487680560311      9.8852438402801557
   127   1                       0      19.770487680560311      11.862292608336189
   128   1                       0      19.770487680560311       13.83934137639222
   129   1                       0      19.770487680560311      15.816390144448253
   130   1                       0      19.770487680560311      17.793438912504286
   131   1                       0      19.770487680560311      19.770487680560311
   132   1                       0      19.770487680560311      21.747536448616348
   133   1                       0      21.747536448616348                       0
   134   1                       0      21.747536448616348      1.9770487680560316
   135   1                       0      21.747536448616348      3.9540975361120632
   136   1                       0      21.747536448616348      5.9311463041680952
   137   1                       0      21.747536448616348      7.9081950722241263
   138   1                       0      21.747536448616348      9.8852438402801557
   139   1                       0      21.747536448616348      11.862292608336189
   140   1                       0      21.747536448616348       13.83934137639222
   141   1                       0      21.747536448616348      15.816390144448253
   142   1                       0      21.747536448616348      17.793438912504286
   143   1                       0      21.747536448616348      19.770487680560311
   144   1                       0      21.747536448616348      21.747536448616348
   145   1      1.9770487680560316                       0                       0
   146   1      1.9770487680560316                       0      1.9770487680560316
   147   1      1.9770487680560316                       0      3.9540975361120632
   148   1      1.9770487680560316                       0      5.9311463041680952
   149   1      1.9770487680560316                       0      7.9081950722241263
   150   1      1.9770487680560316                       0      9.8852438402801557
   151   1      1.9770487680560316                       0      11.862292608336189
   152   1      1.9770487680560316                       0       13.83934137639222
   153   1      1.9770487680560316                       0      15.816390144448253
   154   1      1.9770487680560316                       0      17.793438912504286
   155   1      1.9770487680560316                       0      19.770487680560311
   156   1      1.9770487680560316                       0      21.747536448616348
   157   1      1.9770487680560316      1.9770487680560316                       0
   158   1      1.9770487680560316      1.9770487680560316      1.9770487680560316
   159   1      1.9770487680560316      1.9770487680560316      3.9540975361120632
   160   1      1.9770487680560316      1.9770487680560316      5.9311463041680952
   161   1      1.9770487680560316      1.9770487680560316      7.9081950722241263
   162   1      1.9770487680560316      1.9770487680560316      9.8852438402801557
   163   1      1.9770487680560316      1.9770487680560316      11.862292608336189
   164   1      1.9770487680560316      1.9770487680560316       13.83934137639222
   165   1      1.9770487680560316      1.9770487680560316      15.816390144448253
   166   1      1.9770487680560316      1.9770487680560316      17.793438912504286
   167   1      1.9770487680560316      1.9770487680560316      19.770487680560311
   168   1      1.9770487680560316      1.9770487680560316      21.747536448616348
   169   1      1.9770487680560316      3.9540975361120632                       0
   170   1      1.9770487680560316      3.9540975361120632      1.9770487680560316
   171   1      1.9770487680560316      3.9540975361120632      3.9540975361120632
   172   1      1.9770487680560316      3.9540975361120632      5.9311463041680952
   173   1      1.9770487680560316      3.9540975361120632      7.9081950722241263
   174   1      1.9770487680560316      3.9540975361120632      9.8852438402801557
   175   1      1.9770487680560316      3.9540975361120632      11.862292608336189
   176   1      1.9770487680560316      3.9540975361120632       13.83934137639222
   177   1      1.9770487680560316      3.9540975361120632      15.816390144448253
   178   1      1.9770487680560316      3.9540975361120632      17.793438912504286
   179   1      1.9770487680560316      3.9540975361120632      19.770487680560311
   180   1      1.9770487680560316      3.9540975361120632      21.747536448616348
   181   1      1.9770487680560316      5.9311463041680952                       0
   182   1      1.9770487680560316      5.9311463041680952      1.9770487680560316
   183   1      1.9770487680560316      5.9311463041680952      3.9540975361120632
   184   1      1.9770487680560316      5.9311463041680952      5.9311463041680952
   185   1      1.9770487680560316      5.9311463041680952      7.9081950722241263
   186   1      1.9770487680560316      5.9311463041680952      9.8852438402801557
   187   1      1.9770487680560316      5.9311463041680952      11.862292608336189
   188   1      1.9770487680560316      5.9311463041680952       13.83934137639222
   189   1      1.9770487680560316      5.9311463041680952      15.816390144448253
   190   1      1.9770487680560316      5.9311463041680952      17.793438912504286
   191   1      1.9770487680560316      5.9311463041680952      19.770487680560311
   192   1      1.9770487680560316      5.9311463041680952      21.747536448616348
   193   1      1.9770487680560316      7.9081950722241263                       0
   194   1      1.9770487680560316      7.9081950722241263      1.9770487680560316
   195   1      1.9770487680560316      7.9081950722241263      3.9540975361120632
   196   1      1.9770487680560316      7.9081950722241263      5.9311463041680952
   197   1      1.9770487680560316      7.9081950722241263      7.9081950722241263
   198   1      1.9770487680560316      7.9081950722241263      9.8852438402801557
   199   1      1.9770487680560316      7.9081950722241263      11.862292608336189
   200   1      1.9770487680560316      7.9081950722241263       13.83934137639222
   201   1      1.9770487680560316      7.9081950722241263      15.816390144448253
   202   1      1.9770487680560316      7.9081950722241263      17.793438912504286
   203   1      1.9770487680560316      7.9081950722241263      19.770487680560311
   204   1      1.9770487680560316      7.9081950722241263      21.747536448616348
   205   1      1.9770487680560316      9.8852438402801557                       0
   206   1      1.9770487680560316      9.8852438402801557      1.9770487680560316
   207   1      1.9770487680560316      9.8852438402801557      3.9540975361120632
   208   1      1.9770487680560316      9.8852438402801557      5.9311463041680952
   209   1      1.9770487680560316      9.8852438402801557      7.9081950722241263
   210   1      1.9770487680560316      9.8852438402801557      9.8852438402801557
   211   1      1.9770487680560316      9.8852438402801557      11.862292608336189
   212   1      1.9770487680560316      9.8852438402801557       13.83934137639222
   213   1      1.9770487680560316      9.8852438402801557      15.816390144448253
   214   1      1.9770487680560316      9.8852438402801557      17.793438912504286
   215   1      1.9770487680560316      9.8852438402801557      19.770487680560311
   216   1      1.9770487680560316      9.8852438402801557      21.747536448616348
   217   1      1.9770487680560316      11.862292608336189                       0
   218   1      1.9770487680560316      11.862292608336189      1.9770487680560316
   219   1      1.9770487680560316      11.862292608336189      3.9540975361120632
   220   1      1.9770487680560316      11.862292608336189      5.9311463041680952
   221   1      1.9770487680560316      11.862292608336189      7.9081950722241263
   222   1      1.9770487680560316      11.862292608336189      9.8852438402801557
   223   1      1.9770487680560316      11.862292608336189      11.862292608336189
   224   1      1.9770487680560316      11.862292608336189       13.83934137639222
   225   1      1.9770487680560316      11.862292608336189      15.816390144448253
   226   1      1.9770487680560316      11.862292608336189      17.793438912504286
   227   1      1.9770487680560316      11.862292608336189      19.770487680560311
   228   1      1.9770487680560316      11.862292608336189      21.747536448616348
   229   1      1.9770487680560316       13.83934137639222                       0
   230   1      1.9770487680560316       13.83934137639222      1.9770487680560316
   231   1      1.9770487680560316       13.83934137639222      3.9540975361120632
   232   1      1.9770487680560316       13.83934137639222      5.9311463041680952
   233   1      1.9770487680560316       13.83934137639222      7.9081950722241263
   234   1      1.9770487680560316       13.83934137639222      9.8852438402801557
   235   1      1.9770487680560316       13.83934137639222      11.862292608336189
   236   1      1.9770487680560316       13.83934137639222       13.83934137639222
   237   1      1.9770487680560316       13.83934137639222      15.816390144448253
   238   1      1.9770487680560316       13.83934137639222      17.793438912504286
   239   1      1.9770487680560316       13.83934137639222      19.770487680560311
   240   1      1.9770487680560316       13.83934137639222      21.747536448616348
   241   1      1.9770487680560316      15.816390144448253                       0
   242   1      1.9770487680560316      15.816390144448253      1.9770487680560316
   243   1      1.9770487680560316      15.816390144448253      3.9540975361120632
   244   1      1.9770487680560316      15.816390144448253      5.9311463041680952
   245   1      1.9770487680560316      15.816390144448253      7.9081950722241263
   246   1      1.9770487680560316      15.816390144448253      9.8852438402801557
   247   1      1.9770487680560316      15.816390144448253      11.862292608336189
   248   1      1.9770487680560316      15.816390144448253       13.83934137639222
   249   1      1.9770487680560316      15.816390144448253      15.816390144448253
   250   1      1.9770487680560316      15.816390144448253      17.793438912504286
   251   1      1.9770487680560316      15.816390144448253      19.770487680560311
   252   1      1.9770487680560316      15.816390144448253      21.747536448616348
   253   1      1.9770487680560316      17.793438912504286                       0
   254   1      1.9770487680560316      17.793438912504286      1.9770487680560316
   255   1      1.9770487680560316      17.793438912504286      3.9540975361120632
   256   1      1.9770487680560316      17.793438912504286      5.9311463041680952
   257   1      1.9770487680560316      17.793438912504286      7.9081950722241263
   258   1      1.9770487680560316      17.793438912504286      9.8852438402801557
   259   1      1.9770487680560316      17.793438912504286      11.862292608336189
   260   1      1.9770487680560316      17.793438912504286       13.83934137639222
   261   1      1.9770487680560316      17.793438912504286      15.816390144448253
   262   1      1.9770487680560316      17.793438912504286      17.793438912504286
   263   1      1.9770487680560316      17.793438912504286      19.770487680560311
   264   1      1.9770487680560316      17.793438912504286      21.747536448616348
   265   1      1.9770487680560316      19.770487680560311                       0
   266   1      1.9770487680560316      19.770487680560311      1.9770487680560316
   267   1      1.9770487680560316      19.770487680560311      3.9540975361120632
   268   1      1.9770487680560316      19.770487680560311      5.9311463041680952
   269   1      1.9770487680560316      19.770487680560311      7.9081950722241263
   270   1      1.9770487680560316      19.770487680560311      9.8852438402801557
   271   1      1.9770487680560316      19.770487680560311      11.862292608336189
   272   1      1.9770487680560316      19.770487680560311       13.83934137639222
   273   1      1.9770487680560316      19.770487680560311      15.816390144448253
   274   1      1.9770487680560316      19.770487680560311      17.793438912504286
   275   1      1.9770487680560316      19.770487680560311      19.770487680560311
   276   1      1.9770487680560316      19.770487680560311      21.747536448616348
   277   1      1.9770487680560316      21.747536448616348                       0
   278   1      1.9770487680560316      21.747536448616348      1.9770487680560316
   279   1      1.9770487680560316      21.747536448616348      3.9540975361120632
   280   1      1.9770487680560316      21.747536448616348      5.9311463041680952
   281   1      1.9770487680560316      21.747536448616348      7.9081950722241263
   282   1      1.9770487680560316      21.747536448616348      9.8852438402801557
   283   1      1.9770487680560316      21.747536448616348      11.862292608336189
   284   1      1.9770487680560316      21.747536448616348       13.83934137639222
   285   1      1.9770487680560316      21.747536448616348      15.816390144448253
   286   1      1.9770487680560316      21.747536448616348      17.793438912504286
   287   1      1.9770487680560316      21.747536448616348      19.770487680560311
   288   1      1.9770487680560316      21.747536448616348      21.747536448616348
   289   1      3.9540975361120632                       0                       0
   290   1      3.9540975361120632                       0      1.9770487680560316
   291   1      3.9540975361120632                       0      3.9540975361120632
   292   1      3.9540975361120632                       0      5.9311463041680952
   293   1      3.9540975361120632                       0      7.9081950722241263
   294   1      3.9540975361120632                       0      9.8852438402801557
   295   1      3.9540975361120632                       0      11.862292608336189
   296   1      3.9540975361120632                       0       13.83934137639222
   297   1      3.9540975361120632                       0      15.816390144448253
   298   1      3.9540975361120632                       0      17.793438912504286
   299   1      3.9540975361120632                       0      19.770487680560311
   300   1      3.9540975361120632                       0      21.747536448616348
   301   1      3.9540975361120632      1.9770487680560316                       0
   302   1      3.9540975361120632      1.9770487680560316      1.9770487680560316
   303   1      3.9540975361120632      1.9770487680560316      3.9540975361120632
   304   1      3.9540975361120632      1.9770487680560316      5.9311463041680952
   305   1      3.9540975361120632      1.9770487680560316      7.9081950722241263
   306   1      3.9540975361120632      1.9770487680560316      9.8852438402801557
   307   1      3.9540975361120632      1.9770487680560316      11.862292608336189
   308   1      3.9540975361120632      1.9770487680560316       13.83934137639222
   309   1      3.9540975361120632      1.9770487680560316      15.816390144448253
   310   1      3.9540975361120632      1.9770487680560316      17.793438912504286
   311   1      3.9540975361120632      1.9770487680560316      19.770487680560311
   312   1      3.9540975361120632      1.9770487680560316      21.747536448616348
   313   1      3.9540975361120632      3.9540975361120632                       0
   314   1      3.9540975361120632      3.9540975361120632      1.9770487680560316
   315   1      3.9540975361120632      3.9540975361120632      3.9540975361120632
   316   1      3.9540975361120632      3.9540975361120632      5.9311463041680952
   317   1      3.9540975361120632      3.9540975361120632      7.9081950722241263
   318   1      3.9540975361120632      3.9540975361120632      9.8852438402801557
   319   1      3.9540975361120632      3.9540975361120632      11.862292608336189
   320   1      3.9540975361120632      3.9540975361120632       13.83934137639222
   321   1      3.9540975361120632      3.9540975361120632      15.816390144448253
   322   1      3.9540975361120632      3.9540975361120632      17.793438912504286
   323   1      3.9540975361120632      3.9540975361120632      19.770487680560311
   324   1      3.9540975361120632      3.9540975361120632      21.747536448616348
   325   1      3.9540975361120632      5.9311463041680952                       0
   326   1      3.9540975361120632      5.9311463041680952      1.9770487680560316
   327   1      3.9540975361120632      5.9311463041680952      3.9540975361120632
   328   1      3.9540975361120632      5.9311463041680952      5.9311463041680952
   329   1      3.9540975361120632      5.9311463041680952      7.9081950722241263
   330   1      3.9540975361120632      5.9311463041680952      9.8852438402801557
   331   1      3.9540975361120632      5.9311463041680952      11.862292608336189
   332   1      3.9540975361120632      5.9311463041680952       13.83934137639222
   333   1      3.9540975361120632      5.9311463041680952      15.816390144448253
   334   1      3.9540975361120632      5.9311463041680952      17.793438912504286
   335   1      3.9540975361120632      5.9311463041680952      19.770487680560311
   336   1      3.9540975361120632      5.9311463041680952      21.747536448616348
   337   1      3.9540975361120632      7.9081950722241263                       0
   338   1      3.9540975361120632      7.9081950722241263      1.9770487680560316
   339   1      3.9540975361120632      7.9081950722241263      3.9540975361120632
   340   1      3.9540975361120632      7.9081950722241263      5.9311463041680952
   341   1      3.9540975361120632      7.9081950722241263      7.9081950722241263
   342   1      3.9540975361120632      7.9081950722241263      9.8852438402801557
   343   1      3.9540975361120632      7.9081950722241263      11.862292608336189
   344   1      3.9540975361120632      7.9081950722241263       13.83934137639222
   345   1      3.9540975361120632      7.9081950722241263      15.816390144448253
   346   1      3.9540975361120632      7.9081950722241263      17.793438912504286
   347   1      3.9540975361120632      7.9081950722241263      19.770487680560311
   348   1      3.9540975361120632      7.9081950722241263      21.747536448616348
   349   1      3.9540975361120632      9.8852438402801557                       0
   350   1      3.9540975361120632      9.8852438402801557      1.9770487680560316
   351   1      3.9540975361120632      9.8852438402801557      3.9540975361120632
   352   1      3.9540975361120632      9.8852438402801557      5.9311463041680952
   353   1      3.9540975361120632      9.8852438402801557      7.9081950722241263
   354   1      3.9540975361120632      9.8852438402801557      9.8852438402801557
   355   1      3.9540975361120632      9.8852438402801557      11.862292608336189
   356   1      3.9540975361120632      9.8852438402801557       13.83934137639222
   357   1      3.9540975361120632      9.8852438402801557      15.816390144448253
   358   1      3.9540975361120632      9.8852438402801557      17.793438912504286
   359   1      3.9540975361120632      9.8852438402801557      19.770487680560311