rho10.7-666.lmp (written by ASE) 

216 	 atoms 
1  atom types
0.0      12.324456853288284  xlo xhi
0.0      12.324456853288284  ylo yhi
0.0      12.324456853288284  zlo zhi


Atoms 

     1   1                       0                       0                       0
     2   1                       0                       0       2.054076142214714
     3   1                       0                       0       4.108152284429428
     4   1                       0                       0      6.1622284266441412
     5   1                       0                       0      8.2163045688588561
     6   1                       0                       0      10.270380711073569
     7   1                       0       2.054076142214714                       0
     8   1                       0       2.054076142214714       2.054076142214714
     9   1                       0       2.054076142214714       4.108152284429428
    10   1                       0       2.054076142214714      6.1622284266441412
    11   1                       0       2.054076142214714      8.2163045688588561
    12   1                       0       2.054076142214714      10.270380711073569
    13   1                       0       4.108152284429428                       0
    14   1                       0       4.108152284429428       2.054076142214714
    15   1                       0       4.108152284429428       4.108152284429428
    16   1                       0       4.108152284429428      6.1622284266441412
    17   1                       0       4.108152284429428      8.2163045688588561
    18   1                       0       4.108152284429428      10.270380711073569
    19   1                       0      6.1622284266441412                       0
    20   1                       0      6.1622284266441412       2.054076142214714
    21   1                       0      6.1622284266441412       4.108152284429428
    22   1                       0      6.1622284266441412      6.1622284266441412
    23   1                       0      6.1622284266441412      8.2163045688588561
    24   1                       0      6.1622284266441412      10.270380711073569
    25   1                       0      8.2163045688588561                       0
    26   1                       0      8.2163045688588561       2.054076142214714
    27   1                       0      8.2163045688588561       4.108152284429428
    28   1                       0      8.2163045688588561      6.1622284266441412
    29   1                       0      8.2163045688588561      8.2163045688588561
    30   1                       0      8.2163045688588561      10.270380711073569
    31   1                       0      10.270380711073569                       0
    32   1                       0      10.270380711073569       2.054076142214714
    33   1                       0      10.270380711073569       4.108152284429428
    34   1                       0      10.270380711073569      6.1622284266441412
    35   1                       0      10.270380711073569      8.2163045688588561
    36   1                       0      10.270380711073569      10.270380711073569
    37   1       2.054076142214714                       0                       0
    38   1       2.054076142214714                       0       2.054076142214714
    39   1       2.054076142214714                       0       4.108152284429428
    40   1       2.054076142214714                       0      6.1622284266441412
    41   1       2.054076142214714                       0      8.2163045688588561
    42   1       2.054076142214714                       0      10.270380711073569
    43   1       2.054076142214714       2.054076142214714                       0
    44   1       2.054076142214714       2.054076142214714       2.054076142214714
    45   1       2.054076142214714       2.054076142214714       4.108152284429428
    46   1       2.054076142214714       2.054076142214714      6.1622284266441412
    47   1       2.054076142214714       2.054076142214714      8.2163045688588561
    48   1       2.054076142214714       2.054076142214714      10.270380711073569
    49   1       2.054076142214714       4.108152284429428                       0
    50   1       2.054076142214714       4.108152284429428       2.054076142214714
    51   1       2.054076142214714       4.108152284429428       4.108152284429428
    52   1       2.054076142214714       4.108152284429428      6.1622284266441412
    53   1       2.054076142214714       4.108152284429428      8.2163045688588561
    54   1       2.054076142214714       4.108152284429428      10.270380711073569
    55   1       2.054076142214714      6.1622284266441412                       0
    56   1       2.054076142214714      6.1622284266441412       2.054076142214714
    57   1       2.054076142214714      6.1622284266441412       4.108152284429428
    58   1       2.054076142214714      6.1622284266441412      6.1622284266441412
    59   1       2.054076142214714      6.1622284266441412      8.2163045688588561
    60   1       2.054076142214714      6.1622284266441412      10.270380711073569
    61   1       2.054076142214714      8.2163045688588561                       0
    62   1       2.054076142214714      8.2163045688588561       2.054076142214714
    63   1       2.054076142214714      8.2163045688588561       4.108152284429428
    64   1       2.054076142214714      8.2163045688588561      6.1622284266441412
    65   1       2.054076142214714      8.2163045688588561      8.2163045688588561
    66   1       2.054076142214714      8.2163045688588561      10.270380711073569
    67   1       2.054076142214714      10.270380711073569                       0
    68   1       2.054076142214714      10.270380711073569       2.054076142214714
    69   1       2.054076142214714      10.270380711073569       4.108152284429428
    70   1       2.054076142214714      10.270380711073569      6.1622284266441412
    71   1       2.054076142214714      10.270380711073569      8.2163045688588561
    72   1       2.054076142214714      10.270380711073569      10.270380711073569
    73   1       4.108152284429428                       0                       0
    74   1       4.108152284429428                       0       2.054076142214714
    75   1       4.108152284429428                       0       4.108152284429428
    76   1       4.108152284429428                       0      6.1622284266441412
    77   1       4.108152284429428                       0      8.2163045688588561
    78   1       4.108152284429428                       0      10.270380711073569
    79   1       4.108152284429428       2.054076142214714                       0
    80   1       4.108152284429428       2.054076142214714       2.054076142214714
    81   1       4.108152284429428       2.054076142214714       4.108152284429428
    82   1       4.108152284429428       2.054076142214714      6.1622284266441412
    83   1       4.108152284429428       2.054076142214714      8.2163045688588561
    84   1       4.108152284429428       2.054076142214714      10.270380711073569
    85   1       4.108152284429428       4.108152284429428                       0
    86   1       4.108152284429428       4.108152284429428       2.054076142214714
    87   1       4.108152284429428       4.108152284429428       4.108152284429428
    88   1       4.108152284429428       4.108152284429428      6.1622284266441412
    89   1       4.108152284429428       4.108152284429428      8.2163045688588561
    90   1       4.108152284429428       4.108152284429428      10.270380711073569
    91   1       4.108152284429428      6.1622284266441412                       0
    92   1       4.108152284429428      6.1622284266441412       2.054076142214714
    93   1       4.108152284429428      6.1622284266441412       4.108152284429428
    94   1       4.108152284429428      6.1622284266441412      6.1622284266441412
    95   1       4.108152284429428      6.1622284266441412      8.2163045688588561
    96   1       4.108152284429428      6.1622284266441412      10.270380711073569
    97   1       4.108152284429428      8.2163045688588561                       0
    98   1       4.108152284429428      8.2163045688588561       2.054076142214714
    99   1       4.108152284429428      8.2163045688588561       4.108152284429428
   100   1       4.108152284429428      8.2163045688588561      6.1622284266441412
   101   1       4.108152284429428      8.2163045688588561      8.2163045688588561
   102   1       4.108152284429428      8.2163045688588561      10.270380711073569
   103   1       4.108152284429428      10.270380711073569                       0
   104   1       4.108152284429428      10.270380711073569       2.054076142214714
   105   1       4.108152284429428      10.270380711073569       4.108152284429428
   106   1       4.108152284429428      10.270380711073569      6.1622284266441412
   107   1       4.108152284429428      10.270380711073569      8.2163045688588561
   108   1       4.108152284429428      10.270380711073569      10.270380711073569
   109   1      6.1622284266441412                       0                       0
   110   1      6.1622284266441412                       0       2.054076142214714
   111   1      6.1622284266441412                       0       4.108152284429428
   112   1      6.1622284266441412                       0      6.1622284266441412
   113   1      6.1622284266441412                       0      8.2163045688588561
   114   1      6.1622284266441412                       0      10.270380711073569
   115   1      6.1622284266441412       2.054076142214714                       0
   116   1      6.1622284266441412       2.054076142214714       2.054076142214714
   117   1      6.1622284266441412       2.054076142214714       4.108152284429428
   118   1      6.1622284266441412       2.054076142214714      6.1622284266441412
   119   1      6.1622284266441412       2.054076142214714      8.2163045688588561
   120   1      6.1622284266441412       2.054076142214714      10.270380711073569
   121   1      6.1622284266441412       4.108152284429428                       0
   122   1      6.1622284266441412       4.108152284429428       2.054076142214714
   123   1      6.1622284266441412       4.108152284429428       4.108152284429428
   124   1      6.1622284266441412       4.108152284429428      6.1622284266441412
   125   1      6.1622284266441412       4.108152284429428      8.2163045688588561
   126   1      6.1622284266441412       4.108152284429428      10.270380711073569
   127   1      6.1622284266441412      6.1622284266441412                       0
   128   1      6.1622284266441412      6.1622284266441412       2.054076142214714
   129   1      6.1622284266441412      6.1622284266441412       4.108152284429428
   130   1      6.1622284266441412      6.1622284266441412      6.1622284266441412
   131   1      6.1622284266441412      6.1622284266441412      8.2163045688588561
   132   1      6.1622284266441412      6.1622284266441412      10.270380711073569
   133   1      6.1622284266441412      8.2163045688588561                       0
   134   1      6.1622284266441412      8.2163045688588561       2.054076142214714
   135   1      6.1622284266441412      8.2163045688588561       4.108152284429428
   136   1      6.1622284266441412      8.2163045688588561      6.1622284266441412
   137   1      6.1622284266441412      8.2163045688588561      8.2163045688588561
   138   1      6.1622284266441412      8.2163045688588561      10.270380711073569
   139   1      6.1622284266441412      10.270380711073569                       0
   140   1      6.1622284266441412      10.270380711073569       2.054076142214714
   141   1      6.1622284266441412      10.270380711073569       4.108152284429428
   142   1      6.1622284266441412      10.270380711073569      6.1622284266441412
   143   1      6.1622284266441412      10.270380711073569      8.2163045688588561
   144   1      6.1622284266441412      10.270380711073569      10.270380711073569
   145   1      8.2163045688588561                       0                       0
   146   1      8.2163045688588561                       0       2.054076142214714
   147   1      8.2163045688588561                       0       4.108152284429428
   148   1      8.2163045688588561                       0      6.1622284266441412
   149   1      8.2163045688588561                       0      8.2163045688588561
   150   1      8.2163045688588561                       0      10.270380711073569
   151   1      8.2163045688588561       2.054076142214714                       0
   152   1      8.2163045688588561       2.054076142214714       2.054076142214714
   153   1      8.2163045688588561       2.054076142214714       4.108152284429428
   154   1      8.2163045688588561       2.054076142214714      6.1622284266441412
   155   1      8.2163045688588561       2.054076142214714      8.2163045688588561
   156   1      8.2163045688588561       2.054076142214714      10.270380711073569
   157   1      8.2163045688588561       4.108152284429428                       0
   158   1      8.2163045688588561       4.108152284429428       2.054076142214714
   159   1      8.2163045688588561       4.108152284429428       4.108152284429428
   160   1      8.2163045688588561       4.108152284429428      6.1622284266441412
   161   1      8.2163045688588561       4.108152284429428      8.2163045688588561
   162   1      8.2163045688588561       4.108152284429428      10.270380711073569
   163   1      8.2163045688588561      6.1622284266441412                       0
   164   1      8.2163045688588561      6.1622284266441412       2.054076142214714
   165   1      8.2163045688588561      6.1622284266441412       4.108152284429428
   166   1      8.2163045688588561      6.1622284266441412      6.1622284266441412
   167   1      8.2163045688588561      6.1622284266441412      8.2163045688588561
   168   1      8.2163045688588561      6.1622284266441412      10.270380711073569
   169   1      8.2163045688588561      8.2163045688588561                       0
   170   1      8.2163045688588561      8.2163045688588561       2.054076142214714
   171   1      8.2163045688588561      8.2163045688588561       4.108152284429428
   172   1      8.2163045688588561      8.2163045688588561      6.1622284266441412
   173   1      8.2163045688588561      8.2163045688588561      8.2163045688588561
   174   1      8.2163045688588561      8.2163045688588561      10.270380711073569
   175   1      8.2163045688588561      10.270380711073569                       0
   176   1      8.2163045688588561      10.270380711073569       2.054076142214714
   177   1      8.2163045688588561      10.270380711073569       4.108152284429428
   178   1      8.2163045688588561      10.270380711073569      6.1622284266441412
   179   1      8.2163045688588561      10.270380711073569      8.2163045688588561
   180   1      8.2163045688588561      10.270380711073569      10.270380711073569
   181   1      10.270380711073569                       0                       0
   182   1      10.270380711073569                       0       2.054076142214714
   183   1      10.270380711073569                       0       4.108152284429428
   184   1      10.270380711073569                       0      6.1622284266441412
   185   1      10.270380711073569                       0      8.2163045688588561
   186   1      10.270380711073569                       0      10.270380711073569
   187   1      10.270380711073569       2.054076142214714                       0
   188   1      10.270380711073569       2.054076142214714       2.054076142214714
   189   1      10.270380711073569       2.054076142214714       4.108152284429428
   190   1      10.270380711073569       2.054076142214714      6.1622284266441412
   191   1      10.270380711073569       2.054076142214714      8.2163045688588561
   192   1      10.270380711073569       2.054076142214714      10.270380711073569
   193   1      10.270380711073569       4.108152284429428                       0
   194   1      10.270380711073569       4.108152284429428       2.054076142214714
   195   1      10.270380711073569       4.108152284429428       4.108152284429428
   196   1      10.270380711073569       4.108152284429428      6.1622284266441412
   197   1      10.270380711073569       4.108152284429428      8.2163045688588561
   198   1      10.270380711073569       4.108152284429428      10.270380711073569
   199   1      10.270380711073569      6.1622284266441412                       0
   200   1      10.270380711073569      6.1622284266441412       2.054076142214714
   201   1      10.270380711073569      6.1622284266441412       4.108152284429428
   202   1      10.270380711073569      6.1622284266441412      6.1622284266441412
   203   1      10.270380711073569      6.1622284266441412      8.2163045688588561
   204   1      10.270380711073569      6.1622284266441412      10.270380711073569
   205   1      10.270380711073569      8.2163045688588561                       0
   206   1      10.270380711073569      8.2163045688588561       2.054076142214714
   207   1      10.270380711073569      8.2163045688588561       4.108152284429428
   208   1      10.270380711073569      8.2163045688588561      6.1622284266441412
   209   1      10.270380711073569      8.2163045688588561      8.2163045688588561
   210   1      10.270380711073569      8.2163045688588561      10.270380711073569
   211   1      10.270380711073569      10.270380711073569                       0
   212   1      10.270380711073569      10.270380711073569       2.054076142214714
   213   1      10.270380711073569      10.270380711073569       4.108152284429428
   214   1      10.270380711073569      10.270380711073569      6.1622284266441412
   215   1      10.270380711073569      10.270380711073569      8.2163045688588561
   216   1      10.270380711073569      10.270380711073569      10.270380711073569
