rho10.7-151515.lmp (written by ASE) 

3375 	 atoms 
1  atom types
0.0      30.811142133220709  xlo xhi
0.0      30.811142133220709  ylo yhi
0.0      30.811142133220709  zlo zhi


Atoms 

     1   1                       0                       0                       0
     2   1                       0                       0       2.054076142214714
     3   1                       0                       0       4.108152284429428
     4   1                       0                       0      6.1622284266441412
     5   1                       0                       0      8.2163045688588561
     6   1                       0                       0      10.270380711073569
     7   1                       0                       0      12.324456853288282
     8   1                       0                       0      14.378532995502995
     9   1                       0                       0      16.432609137717712
    10   1                       0                       0       18.48668527993242
    11   1                       0                       0      20.540761422147138
    12   1                       0                       0      22.594837564361853
    13   1                       0                       0      24.648913706576565
    14   1                       0                       0      26.702989848791283
    15   1                       0                       0      28.757065991005991
    16   1                       0       2.054076142214714                       0
    17   1                       0       2.054076142214714       2.054076142214714
    18   1                       0       2.054076142214714       4.108152284429428
    19   1                       0       2.054076142214714      6.1622284266441412
    20   1                       0       2.054076142214714      8.2163045688588561
    21   1                       0       2.054076142214714      10.270380711073569
    22   1                       0       2.054076142214714      12.324456853288282
    23   1                       0       2.054076142214714      14.378532995502995
    24   1                       0       2.054076142214714      16.432609137717712
    25   1                       0       2.054076142214714       18.48668527993242
    26   1                       0       2.054076142214714      20.540761422147138
    27   1                       0       2.054076142214714      22.594837564361853
    28   1                       0       2.054076142214714      24.648913706576565
    29   1                       0       2.054076142214714      26.702989848791283
    30   1                       0       2.054076142214714      28.757065991005991
    31   1                       0       4.108152284429428                       0
    32   1                       0       4.108152284429428       2.054076142214714
    33   1                       0       4.108152284429428       4.108152284429428
    34   1                       0       4.108152284429428      6.1622284266441412
    35   1                       0       4.108152284429428      8.2163045688588561
    36   1                       0       4.108152284429428      10.270380711073569
    37   1                       0       4.108152284429428      12.324456853288282
    38   1                       0       4.108152284429428      14.378532995502995
    39   1                       0       4.108152284429428      16.432609137717712
    40   1                       0       4.108152284429428       18.48668527993242
    41   1                       0       4.108152284429428      20.540761422147138
    42   1                       0       4.108152284429428      22.594837564361853
    43   1                       0       4.108152284429428      24.648913706576565
    44   1                       0       4.108152284429428      26.702989848791283
    45   1                       0       4.108152284429428      28.757065991005991
    46   1                       0      6.1622284266441412                       0
    47   1                       0      6.1622284266441412       2.054076142214714
    48   1                       0      6.1622284266441412       4.108152284429428
    49   1                       0      6.1622284266441412      6.1622284266441412
    50   1                       0      6.1622284266441412      8.2163045688588561
    51   1                       0      6.1622284266441412      10.270380711073569
    52   1                       0      6.1622284266441412      12.324456853288282
    53   1                       0      6.1622284266441412      14.378532995502995
    54   1                       0      6.1622284266441412      16.432609137717712
    55   1                       0      6.1622284266441412       18.48668527993242
    56   1                       0      6.1622284266441412      20.540761422147138
    57   1                       0      6.1622284266441412      22.594837564361853
    58   1                       0      6.1622284266441412      24.648913706576565
    59   1                       0      6.1622284266441412      26.702989848791283
    60   1                       0      6.1622284266441412      28.757065991005991
    61   1                       0      8.2163045688588561                       0
    62   1                       0      8.2163045688588561       2.054076142214714
    63   1                       0      8.2163045688588561       4.108152284429428
    64   1                       0      8.2163045688588561      6.1622284266441412
    65   1                       0      8.2163045688588561      8.2163045688588561
    66   1                       0      8.2163045688588561      10.270380711073569
    67   1                       0      8.2163045688588561      12.324456853288282
    68   1                       0      8.2163045688588561      14.378532995502995
    69   1                       0      8.2163045688588561      16.432609137717712
    70   1                       0      8.2163045688588561       18.48668527993242
    71   1                       0      8.2163045688588561      20.540761422147138
    72   1                       0      8.2163045688588561      22.594837564361853
    73   1                       0      8.2163045688588561      24.648913706576565
    74   1                       0      8.2163045688588561      26.702989848791283
    75   1                       0      8.2163045688588561      28.757065991005991
    76   1                       0      10.270380711073569                       0
    77   1                       0      10.270380711073569       2.054076142214714
    78   1                       0      10.270380711073569       4.108152284429428
    79   1                       0      10.270380711073569      6.1622284266441412
    80   1                       0      10.270380711073569      8.2163045688588561
    81   1                       0      10.270380711073569      10.270380711073569
    82   1                       0      10.270380711073569      12.324456853288282
    83   1                       0      10.270380711073569      14.378532995502995
    84   1                       0      10.270380711073569      16.432609137717712
    85   1                       0      10.270380711073569       18.48668527993242
    86   1                       0      10.270380711073569      20.540761422147138
    87   1                       0      10.270380711073569      22.594837564361853
    88   1                       0      10.270380711073569      24.648913706576565
    89   1                       0      10.270380711073569      26.702989848791283
    90   1                       0      10.270380711073569      28.757065991005991
    91   1                       0      12.324456853288282                       0
    92   1                       0      12.324456853288282       2.054076142214714
    93   1                       0      12.324456853288282       4.108152284429428
    94   1                       0      12.324456853288282      6.1622284266441412
    95   1                       0      12.324456853288282      8.2163045688588561
    96   1                       0      12.324456853288282      10.270380711073569
    97   1                       0      12.324456853288282      12.324456853288282
    98   1                       0      12.324456853288282      14.378532995502995
    99   1                       0      12.324456853288282      16.432609137717712
   100   1                       0      12.324456853288282       18.48668527993242
   101   1                       0      12.324456853288282      20.540761422147138
   102   1                       0      12.324456853288282      22.594837564361853
   103   1                       0      12.324456853288282      24.648913706576565
   104   1                       0      12.324456853288282      26.702989848791283
   105   1                       0      12.324456853288282      28.757065991005991
   106   1                       0      14.378532995502995                       0
   107   1                       0      14.378532995502995       2.054076142214714
   108   1                       0      14.378532995502995       4.108152284429428
   109   1                       0      14.378532995502995      6.1622284266441412
   110   1                       0      14.378532995502995      8.2163045688588561
   111   1                       0      14.378532995502995      10.270380711073569
   112   1                       0      14.378532995502995      12.324456853288282
   113   1                       0      14.378532995502995      14.378532995502995
   114   1                       0      14.378532995502995      16.432609137717712
   115   1                       0      14.378532995502995       18.48668527993242
   116   1                       0      14.378532995502995      20.540761422147138
   117   1                       0      14.378532995502995      22.594837564361853
   118   1                       0      14.378532995502995      24.648913706576565
   119   1                       0      14.378532995502995      26.702989848791283
   120   1                       0      14.378532995502995      28.757065991005991
   121   1                       0      16.432609137717712                       0
   122   1                       0      16.432609137717712       2.054076142214714
   123   1                       0      16.432609137717712       4.108152284429428
   124   1                       0      16.432609137717712      6.1622284266441412
   125   1                       0      16.432609137717712      8.2163045688588561
   126   1                       0      16.432609137717712      10.270380711073569
   127   1                       0      16.432609137717712      12.324456853288282
   128   1                       0      16.432609137717712      14.378532995502995
   129   1                       0      16.432609137717712      16.432609137717712
   130   1                       0      16.432609137717712       18.48668527993242
   131   1                       0      16.432609137717712      20.540761422147138
   132   1                       0      16.432609137717712      22.594837564361853
   133   1                       0      16.432609137717712      24.648913706576565
   134   1                       0      16.432609137717712      26.702989848791283
   135   1                       0      16.432609137717712      28.757065991005991
   136   1                       0       18.48668527993242                       0
   137   1                       0       18.48668527993242       2.054076142214714
   138   1                       0       18.48668527993242       4.108152284429428
   139   1                       0       18.48668527993242      6.1622284266441412
   140   1                       0       18.48668527993242      8.2163045688588561
   141   1                       0       18.48668527993242      10.270380711073569
   142   1                       0       18.48668527993242      12.324456853288282
   143   1                       0       18.48668527993242      14.378532995502995
   144   1                       0       18.48668527993242      16.432609137717712
   145   1                       0       18.48668527993242       18.48668527993242
   146   1                       0       18.48668527993242      20.540761422147138
   147   1                       0       18.48668527993242      22.594837564361853
   148   1                       0       18.48668527993242      24.648913706576565
   149   1                       0       18.48668527993242      26.702989848791283
   150   1                       0       18.48668527993242      28.757065991005991
   151   1                       0      20.540761422147138                       0
   152   1                       0      20.540761422147138       2.054076142214714
   153   1                       0      20.540761422147138       4.108152284429428
   154   1                       0      20.540761422147138      6.1622284266441412
   155   1                       0      20.540761422147138      8.2163045688588561
   156   1                       0      20.540761422147138      10.270380711073569
   157   1                       0      20.540761422147138      12.324456853288282
   158   1                       0      20.540761422147138      14.378532995502995
   159   1                       0      20.540761422147138      16.432609137717712
   160   1                       0      20.540761422147138       18.48668527993242
   161   1                       0      20.540761422147138      20.540761422147138
   162   1                       0      20.540761422147138      22.594837564361853
   163   1                       0      20.540761422147138      24.648913706576565
   164   1                       0      20.540761422147138      26.702989848791283
   165   1                       0      20.540761422147138      28.757065991005991
   166   1                       0      22.594837564361853                       0
   167   1                       0      22.594837564361853       2.054076142214714
   168   1                       0      22.594837564361853       4.108152284429428
   169   1                       0      22.594837564361853      6.1622284266441412
   170   1                       0      22.594837564361853      8.2163045688588561
   171   1                       0      22.594837564361853      10.270380711073569
   172   1                       0      22.594837564361853      12.324456853288282
   173   1                       0      22.594837564361853      14.378532995502995
   174   1                       0      22.594837564361853      16.432609137717712
   175   1                       0      22.594837564361853       18.48668527993242
   176   1                       0      22.594837564361853      20.540761422147138
   177   1                       0      22.594837564361853      22.594837564361853
   178   1                       0      22.594837564361853      24.648913706576565
   179   1                       0      22.594837564361853      26.702989848791283
   180   1                       0      22.594837564361853      28.757065991005991
   181   1                       0      24.648913706576565                       0
   182   1                       0      24.648913706576565       2.054076142214714
   183   1                       0      24.648913706576565       4.108152284429428
   184   1                       0      24.648913706576565      6.1622284266441412
   185   1                       0      24.648913706576565      8.2163045688588561
   186   1                       0      24.648913706576565      10.270380711073569
   187   1                       0      24.648913706576565      12.324456853288282
   188   1                       0      24.648913706576565      14.378532995502995
   189   1                       0      24.648913706576565      16.432609137717712
   190   1                       0      24.648913706576565       18.48668527993242
   191   1                       0      24.648913706576565      20.540761422147138
   192   1                       0      24.648913706576565      22.594837564361853
   193   1                       0      24.648913706576565      24.648913706576565
   194   1                       0      24.648913706576565      26.702989848791283
   195   1                       0      24.648913706576565      28.757065991005991
   196   1                       0      26.702989848791283                       0
   197   1                       0      26.702989848791283       2.054076142214714
   198   1                       0      26.702989848791283       4.108152284429428
   199   1                       0      26.702989848791283      6.1622284266441412
   200   1                       0      26.702989848791283      8.2163045688588561
   201   1                       0      26.702989848791283      10.270380711073569
   202   1                       0      26.702989848791283      12.324456853288282
   203   1                       0      26.702989848791283      14.378532995502995
   204   1                       0      26.702989848791283      16.432609137717712
   205   1                       0      26.702989848791283       18.48668527993242
   206   1                       0      26.702989848791283      20.540761422147138
   207   1                       0      26.702989848791283      22.594837564361853
   208   1                       0      26.702989848791283      24.648913706576565
   209   1                       0      26.702989848791283      26.702989848791283
   210   1                       0      26.702989848791283      28.757065991005991
   211   1                       0      28.757065991005991                       0
   212   1                       0      28.757065991005991       2.054076142214714
   213   1                       0      28.757065991005991       4.108152284429428
   214   1                       0      28.757065991005991      6.1622284266441412
   215   1                       0      28.757065991005991      8.2163045688588561
   216   1                       0      28.757065991005991      10.270380711073569
   217   1                       0      28.757065991005991      12.324456853288282
   218   1                       0      28.757065991005991      14.378532995502995
   219   1                       0      28.757065991005991      16.432609137717712
   220   1                       0      28.757065991005991       18.48668527993242
   221   1                       0      28.757065991005991      20.540761422147138
   222   1                       0      28.757065991005991      22.594837564361853
   223   1                       0      28.757065991005991      24.648913706576565
   224   1                       0      28.757065991005991      26.702989848791283
   225   1                       0      28.757065991005991      28.757065991005991
   226   1       2.054076142214714                       0                       0
   227   1       2.054076142214714                       0       2.054076142214714
   228   1       2.054076142214714                       0       4.108152284429428
   229   1       2.054076142214714                       0      6.1622284266441412
   230   1       2.054076142214714                       0      8.2163045688588561
   231   1       2.054076142214714                       0      10.270380711073569
   232   1       2.054076142214714                       0      12.324456853288282
   233   1       2.054076142214714                       0      14.378532995502995
   234   1       2.054076142214714                       0      16.432609137717712
   235   1       2.054076142214714                       0       18.48668527993242
   236   1       2.054076142214714                       0      20.540761422147138
   237   1       2.054076142214714                       0      22.594837564361853
   238   1       2.054076142214714                       0      24.648913706576565
   239   1       2.054076142214714                       0      26.702989848791283
   240   1       2.054076142214714                       0      28.757065991005991
   241   1       2.054076142214714       2.054076142214714                       0
   242   1       2.054076142214714       2.054076142214714       2.054076142214714
   243   1       2.054076142214714       2.054076142214714       4.108152284429428
   244   1       2.054076142214714       2.054076142214714      6.1622284266441412
   245   1       2.054076142214714       2.054076142214714      8.2163045688588561
   246   1       2.054076142214714       2.054076142214714      10.270380711073569
   247   1       2.054076142214714       2.054076142214714      12.324456853288282
   248   1       2.054076142214714       2.054076142214714      14.378532995502995
   249   1       2.054076142214714       2.054076142214714      16.432609137717712
   250   1       2.054076142214714       2.054076142214714       18.48668527993242
   251   1       2.054076142214714       2.054076142214714      20.540761422147138
   252   1       2.054076142214714       2.054076142214714      22.594837564361853
   253   1       2.054076142214714       2.054076142214714      24.648913706576565
   254   1       2.054076142214714       2.054076142214714      26.702989848791283
   255   1       2.054076142214714       2.054076142214714      28.757065991005991
   256   1       2.054076142214714       4.108152284429428                       0
   257   1       2.054076142214714       4.108152284429428       2.054076142214714
   258   1       2.054076142214714       4.108152284429428       4.108152284429428
   259   1       2.054076142214714       4.108152284429428      6.1622284266441412
   260   1       2.054076142214714       4.108152284429428      8.2163045688588561
   261   1       2.054076142214714       4.108152284429428      10.270380711073569
   262   1       2.054076142214714       4.108152284429428      12.324456853288282
   263   1       2.054076142214714       4.108152284429428      14.378532995502995
   264   1       2.054076142214714       4.108152284429428      16.432609137717712
   265   1       2.054076142214714       4.108152284429428       18.48668527993242
   266   1       2.054076142214714       4.108152284429428      20.540761422147138
   267   1       2.054076142214714       4.108152284429428      22.594837564361853
   268   1       2.054076142214714       4.108152284429428      24.648913706576565
   269   1       2.054076142214714       4.108152284429428      26.702989848791283
   270   1       2.054076142214714       4.108152284429428      28.757065991005991
   271   1       2.054076142214714      6.1622284266441412                       0
   272   1       2.054076142214714      6.1622284266441412       2.054076142214714
   273   1       2.054076142214714      6.1622284266441412       4.108152284429428
   274   1       2.054076142214714      6.1622284266441412      6.1622284266441412
   275   1       2.054076142214714      6.1622284266441412      8.2163045688588561
   276   1       2.054076142214714      6.1622284266441412      10.270380711073569
   277   1       2.054076142214714      6.1622284266441412      12.324456853288282
   278   1       2.054076142214714      6.1622284266441412      14.378532995502995
   279   1       2.054076142214714      6.1622284266441412      16.432609137717712
   280   1       2.054076142214714      6.1622284266441412       18.48668527993242
   281   1       2.054076142214714      6.1622284266441412      20.540761422147138
   282   1       2.054076142214714      6.1622284266441412      22.594837564361853
   283   1       2.054076142214714      6.1622284266441412      24.648913706576565
   284   1       2.054076142214714      6.1622284266441412      26.702989848791283
   285   1       2.054076142214714      6.1622284266441412      28.757065991005991
   286   1       2.054076142214714      8.2163045688588561                       0
   287   1       2.054076142214714      8.2163045688588561       2.054076142214714
   288   1       2.054076142214714      8.2163045688588561       4.108152284429428
   289   1       2.054076142214714      8.2163045688588561      6.1622284266441412
   290   1       2.054076142214714      8.2163045688588561      8.2163045688588561
   291   1       2.054076142214714      8.2163045688588561      10.270380711073569
   292   1       2.054076142214714      8.2163045688588561      12.324456853288282
   293   1       2.054076142214714      8.2163045688588561      14.378532995502995
   294   1       2.054076142214714      8.2163045688588561      16.432609137717712
   295   1       2.054076142214714      8.2163045688588561       18.48668527993242
   296   1       2.054076142214714      8.2163045688588561      20.540761422147138
   297   1       2.054076142214714      8.2163045688588561      22.594837564361853
   298   1       2.054076142214714      8.2163045688588561      24.648913706576565
   299   1       2.054076142214714      8.2163045688588561      26.702989848791283
   300   1       2.054076142214714      8.2163045688588561      28.757065991005991
   301   1       2.054076142214714      10.270380711073569                       0
   302   1       2.054076142214714      10.270380711073569       2.054076142214714
   303   1       2.054076142214714      10.270380711073569       4.108152284429428
   304   1       2.054076142214714      10.270380711073569      6.1622284266441412
   305   1       2.054076142214714      10.270380711073569      8.2163045688588561
   306   1       2.054076142214714      10.270380711073569      10.270380711073569
   307   1       2.054076142214714      10.270380711073569      12.324456853288282
   308   1       2.054076142214714      10.270380711073569      14.378532995502995
   309   1       2.054076142214714      10.270380711073569      16.432609137717712
   310   1       2.054076142214714      10.270380711073569       18.48668527993242
   311   1       2.054076142214714      10.270380711073569      20.540761422147138
   312   1       2.054076142214714      10.270380711073569      22.594837564361853
   313   1       2.054076142214714      10.270380711073569      24.648913706576565
   314   1       2.054076142214714      10.270380711073569      26.702989848791283
   315   1       2.054076142214714      10.270380711073569      28.757065991005991
   316   1       2.054076142214714      12.324456853288282                       0
   317   1       2.054076142214714      12.324456853288282       2.054076142214714
   318   1       2.054076142214714      12.324456853288282       4.108152284429428
   319   1       2.054076142214714      12.324456853288282      6.1622284266441412
   320   1       2.054076142214714      12.324456853288282      8.2163045688588561
   321   1       2.054076142214714      12.324456853288282      10.270380711073569
   322   1       2.054076142214714      12.324456853288282      12.324456853288282
   323   1       2.054076142214714      12.324456853288282      14.378532995502995
   324   1       2.054076142214714      12.324456853288282      16.432609137717712
   325   1       2.054076142214714      12.324456853288282       18.48668527993242
   326   1       2.054076142214714      12.324456853288282      20.540761422147138
   327   1       2.054076142214714      12.324456853288282      22.594837564361853
   328   1       2.054076142214714      12.324456853288282      24.648913706576565
   329   1       2.054076142214714      12.324456853288282      26.702989848791283
   330   1       2.054076142214714      12.324456853288282      28.757065991005991
   331   1       2.054076142214714      14.378532995502995                       0
   332   1       2.054076142214714      14.378532995502995       2.054076142214714
   333   1       2.054076142214714      14.378532995502995       4.108152284429428
   334   1       2.054076142214714      14.378532995502995      6.1622284266441412
   335   1       2.054076142214714      14.378532995502995      8.2163045688588561
   336   1       2.054076142214714      14.378532995502995      10.270380711073569
   337   1       2.054076142214714      14.378532995502995      12.324456853288282
   338   1       2.054076142214714      14.378532995502995      14.378532995502995
   339   1       2.054076142214714      14.378532995502995      16.432609137717712
   340   1       2.054076142214714      14.378532995502995       18.48668527993242
   341   1       2.054076142214714      14.378532995502995      20.540761422147138
   342   1       2.054076142214714      14.378532995502995      22.594837564361853
   343   1       2.054076142214714      14.378532995502995      24.648913706576565
   344   1       2.054076142214714      14.378532995502995      26.702989848791283
   345   1       2.054076142214714      14.378532995502995      28.757065991005991
   346   1       2.054076142214714      16.432609137717712                       0
   347   1       2.054076142214714      16.432609137717712       2.054076142214714
   348   1       2.054076142214714      16.432609137717712       4.108152284429428
   349   1       2.054076142214714      16.432609137717712      6.1622284266441412
   350   1       2.054076142214714      16.432609137717712      8.2163045688588561
   351   1       2.054076142214714      16.432609137717712      10.270380711073569
   352   1       2.054076142214714      16.432609137717712      12.324456853288282
   353   1       2.054076142214714      16.432609137717712      14.378532995502995
   354   1       2.054076142214714      16.432609137717712      16.432609137717712
   355   1       2.054076142214714      16.432609137717712       18.48668527993242
   356   1       2.054076142214714      16.432609137717712      20.540761422147138
   357   1       2.054076142214714      16.432609137717712      22.594837564361853
   358   1       2.054076142214714      16.432609137717712      24.648913706576565
   359   1       2.054076142214714      16.432609137717712      26.702989848791283