rho9.54-121212.lmp (written by ASE) 

1728 	 atoms 
1  atom types
0.0      25.610000408309986  xlo xhi
0.0      25.610000408309986  ylo yhi
0.0      25.610000408309986  zlo zhi


Atoms 

     1   1                       0                       0                       0
     2   1                       0                       0      2.1341667006924987
     3   1                       0                       0      4.2683334013849974
     4   1                       0                       0      6.4025001020774965
     5   1                       0                       0      8.5366668027699948
     6   1                       0                       0      10.670833503462493
     7   1                       0                       0      12.805000204154991
     8   1                       0                       0       14.93916690484749
     9   1                       0                       0       17.07333360553999
    10   1                       0                       0       19.20750030623249
    11   1                       0                       0      21.341667006924986
    12   1                       0                       0      23.475833707617486
    13   1                       0      2.1341667006924987                       0
    14   1                       0      2.1341667006924987      2.1341667006924987
    15   1                       0      2.1341667006924987      4.2683334013849974
    16   1                       0      2.1341667006924987      6.4025001020774965
    17   1                       0      2.1341667006924987      8.5366668027699948
    18   1                       0      2.1341667006924987      10.670833503462493
    19   1                       0      2.1341667006924987      12.805000204154991
    20   1                       0      2.1341667006924987       14.93916690484749
    21   1                       0      2.1341667006924987       17.07333360553999
    22   1                       0      2.1341667006924987       19.20750030623249
    23   1                       0      2.1341667006924987      21.341667006924986
    24   1                       0      2.1341667006924987      23.475833707617486
    25   1                       0      4.2683334013849974                       0
    26   1                       0      4.2683334013849974      2.1341667006924987
    27   1                       0      4.2683334013849974      4.2683334013849974
    28   1                       0      4.2683334013849974      6.4025001020774965
    29   1                       0      4.2683334013849974      8.5366668027699948
    30   1                       0      4.2683334013849974      10.670833503462493
    31   1                       0      4.2683334013849974      12.805000204154991
    32   1                       0      4.2683334013849974       14.93916690484749
    33   1                       0      4.2683334013849974       17.07333360553999
    34   1                       0      4.2683334013849974       19.20750030623249
    35   1                       0      4.2683334013849974      21.341667006924986
    36   1                       0      4.2683334013849974      23.475833707617486
    37   1                       0      6.4025001020774965                       0
    38   1                       0      6.4025001020774965      2.1341667006924987
    39   1                       0      6.4025001020774965      4.2683334013849974
    40   1                       0      6.4025001020774965      6.4025001020774965
    41   1                       0      6.4025001020774965      8.5366668027699948
    42   1                       0      6.4025001020774965      10.670833503462493
    43   1                       0      6.4025001020774965      12.805000204154991
    44   1                       0      6.4025001020774965       14.93916690484749
    45   1                       0      6.4025001020774965       17.07333360553999
    46   1                       0      6.4025001020774965       19.20750030623249
    47   1                       0      6.4025001020774965      21.341667006924986
    48   1                       0      6.4025001020774965      23.475833707617486
    49   1                       0      8.5366668027699948                       0
    50   1                       0      8.5366668027699948      2.1341667006924987
    51   1                       0      8.5366668027699948      4.2683334013849974
    52   1                       0      8.5366668027699948      6.4025001020774965
    53   1                       0      8.5366668027699948      8.5366668027699948
    54   1                       0      8.5366668027699948      10.670833503462493
    55   1                       0      8.5366668027699948      12.805000204154991
    56   1                       0      8.5366668027699948       14.93916690484749
    57   1                       0      8.5366668027699948       17.07333360553999
    58   1                       0      8.5366668027699948       19.20750030623249
    59   1                       0      8.5366668027699948      21.341667006924986
    60   1                       0      8.5366668027699948      23.475833707617486
    61   1                       0      10.670833503462493                       0
    62   1                       0      10.670833503462493      2.1341667006924987
    63   1                       0      10.670833503462493      4.2683334013849974
    64   1                       0      10.670833503462493      6.4025001020774965
    65   1                       0      10.670833503462493      8.5366668027699948
    66   1                       0      10.670833503462493      10.670833503462493
    67   1                       0      10.670833503462493      12.805000204154991
    68   1                       0      10.670833503462493       14.93916690484749
    69   1                       0      10.670833503462493       17.07333360553999
    70   1                       0      10.670833503462493       19.20750030623249
    71   1                       0      10.670833503462493      21.341667006924986
    72   1                       0      10.670833503462493      23.475833707617486
    73   1                       0      12.805000204154991                       0
    74   1                       0      12.805000204154991      2.1341667006924987
    75   1                       0      12.805000204154991      4.2683334013849974
    76   1                       0      12.805000204154991      6.4025001020774965
    77   1                       0      12.805000204154991      8.5366668027699948
    78   1                       0      12.805000204154991      10.670833503462493
    79   1                       0      12.805000204154991      12.805000204154991
    80   1                       0      12.805000204154991       14.93916690484749
    81   1                       0      12.805000204154991       17.07333360553999
    82   1                       0      12.805000204154991       19.20750030623249
    83   1                       0      12.805000204154991      21.341667006924986
    84   1                       0      12.805000204154991      23.475833707617486
    85   1                       0       14.93916690484749                       0
    86   1                       0       14.93916690484749      2.1341667006924987
    87   1                       0       14.93916690484749      4.2683334013849974
    88   1                       0       14.93916690484749      6.4025001020774965
    89   1                       0       14.93916690484749      8.5366668027699948
    90   1                       0       14.93916690484749      10.670833503462493
    91   1                       0       14.93916690484749      12.805000204154991
    92   1                       0       14.93916690484749       14.93916690484749
    93   1                       0       14.93916690484749       17.07333360553999
    94   1                       0       14.93916690484749       19.20750030623249
    95   1                       0       14.93916690484749      21.341667006924986
    96   1                       0       14.93916690484749      23.475833707617486
    97   1                       0       17.07333360553999                       0
    98   1                       0       17.07333360553999      2.1341667006924987
    99   1                       0       17.07333360553999      4.2683334013849974
   100   1                       0       17.07333360553999      6.4025001020774965
   101   1                       0       17.07333360553999      8.5366668027699948
   102   1                       0       17.07333360553999      10.670833503462493
   103   1                       0       17.07333360553999      12.805000204154991
   104   1                       0       17.07333360553999       14.93916690484749
   105   1                       0       17.07333360553999       17.07333360553999
   106   1                       0       17.07333360553999       19.20750030623249
   107   1                       0       17.07333360553999      21.341667006924986
   108   1                       0       17.07333360553999      23.475833707617486
   109   1                       0       19.20750030623249                       0
   110   1                       0       19.20750030623249      2.1341667006924987
   111   1                       0       19.20750030623249      4.2683334013849974
   112   1                       0       19.20750030623249      6.4025001020774965
   113   1                       0       19.20750030623249      8.5366668027699948
   114   1                       0       19.20750030623249      10.670833503462493
   115   1                       0       19.20750030623249      12.805000204154991
   116   1                       0       19.20750030623249       14.93916690484749
   117   1                       0       19.20750030623249       17.07333360553999
   118   1                       0       19.20750030623249       19.20750030623249
   119   1                       0       19.20750030623249      21.341667006924986
   120   1                       0       19.20750030623249      23.475833707617486
   121   1                       0      21.341667006924986                       0
   122   1                       0      21.341667006924986      2.1341667006924987
   123   1                       0      21.341667006924986      4.2683334013849974
   124   1                       0      21.341667006924986      6.4025001020774965
   125   1                       0      21.341667006924986      8.5366668027699948
   126   1                       0      21.341667006924986      10.670833503462493
   127   1                       0      21.341667006924986      12.805000204154991
   128   1                       0      21.341667006924986       14.93916690484749
   129   1                       0      21.341667006924986       17.07333360553999
   130   1                       0      21.341667006924986       19.20750030623249
   131   1                       0      21.341667006924986      21.341667006924986
   132   1                       0      21.341667006924986      23.475833707617486
   133   1                       0      23.475833707617486                       0
   134   1                       0      23.475833707617486      2.1341667006924987
   135   1                       0      23.475833707617486      4.2683334013849974
   136   1                       0      23.475833707617486      6.4025001020774965
   137   1                       0      23.475833707617486      8.5366668027699948
   138   1                       0      23.475833707617486      10.670833503462493
   139   1                       0      23.475833707617486      12.805000204154991
   140   1                       0      23.475833707617486       14.93916690484749
   141   1                       0      23.475833707617486       17.07333360553999
   142   1                       0      23.475833707617486       19.20750030623249
   143   1                       0      23.475833707617486      21.341667006924986
   144   1                       0      23.475833707617486      23.475833707617486
   145   1      2.1341667006924987                       0                       0
   146   1      2.1341667006924987                       0      2.1341667006924987
   147   1      2.1341667006924987                       0      4.2683334013849974
   148   1      2.1341667006924987                       0      6.4025001020774965
   149   1      2.1341667006924987                       0      8.5366668027699948
   150   1      2.1341667006924987                       0      10.670833503462493
   151   1      2.1341667006924987                       0      12.805000204154991
   152   1      2.1341667006924987                       0       14.93916690484749
   153   1      2.1341667006924987                       0       17.07333360553999
   154   1      2.1341667006924987                       0       19.20750030623249
   155   1      2.1341667006924987                       0      21.341667006924986
   156   1      2.1341667006924987                       0      23.475833707617486
   157   1      2.1341667006924987      2.1341667006924987                       0
   158   1      2.1341667006924987      2.1341667006924987      2.1341667006924987
   159   1      2.1341667006924987      2.1341667006924987      4.2683334013849974
   160   1      2.1341667006924987      2.1341667006924987      6.4025001020774965
   161   1      2.1341667006924987      2.1341667006924987      8.5366668027699948
   162   1      2.1341667006924987      2.1341667006924987      10.670833503462493
   163   1      2.1341667006924987      2.1341667006924987      12.805000204154991
   164   1      2.1341667006924987      2.1341667006924987       14.93916690484749
   165   1      2.1341667006924987      2.1341667006924987       17.07333360553999
   166   1      2.1341667006924987      2.1341667006924987       19.20750030623249
   167   1      2.1341667006924987      2.1341667006924987      21.341667006924986
   168   1      2.1341667006924987      2.1341667006924987      23.475833707617486
   169   1      2.1341667006924987      4.2683334013849974                       0
   170   1      2.1341667006924987      4.2683334013849974      2.1341667006924987
   171   1      2.1341667006924987      4.2683334013849974      4.2683334013849974
   172   1      2.1341667006924987      4.2683334013849974      6.4025001020774965
   173   1      2.1341667006924987      4.2683334013849974      8.5366668027699948
   174   1      2.1341667006924987      4.2683334013849974      10.670833503462493
   175   1      2.1341667006924987      4.2683334013849974      12.805000204154991
   176   1      2.1341667006924987      4.2683334013849974       14.93916690484749
   177   1      2.1341667006924987      4.2683334013849974       17.07333360553999
   178   1      2.1341667006924987      4.2683334013849974       19.20750030623249
   179   1      2.1341667006924987      4.2683334013849974      21.341667006924986
   180   1      2.1341667006924987      4.2683334013849974      23.475833707617486
   181   1      2.1341667006924987      6.4025001020774965                       0
   182   1      2.1341667006924987      6.4025001020774965      2.1341667006924987
   183   1      2.1341667006924987      6.4025001020774965      4.2683334013849974
   184   1      2.1341667006924987      6.4025001020774965      6.4025001020774965
   185   1      2.1341667006924987      6.4025001020774965      8.5366668027699948
   186   1      2.1341667006924987      6.4025001020774965      10.670833503462493
   187   1      2.1341667006924987      6.4025001020774965      12.805000204154991
   188   1      2.1341667006924987      6.4025001020774965       14.93916690484749
   189   1      2.1341667006924987      6.4025001020774965       17.07333360553999
   190   1      2.1341667006924987      6.4025001020774965       19.20750030623249
   191   1      2.1341667006924987      6.4025001020774965      21.341667006924986
   192   1      2.1341667006924987      6.4025001020774965      23.475833707617486
   193   1      2.1341667006924987      8.5366668027699948                       0
   194   1      2.1341667006924987      8.5366668027699948      2.1341667006924987
   195   1      2.1341667006924987      8.5366668027699948      4.2683334013849974
   196   1      2.1341667006924987      8.5366668027699948      6.4025001020774965
   197   1      2.1341667006924987      8.5366668027699948      8.5366668027699948
   198   1      2.1341667006924987      8.5366668027699948      10.670833503462493
   199   1      2.1341667006924987      8.5366668027699948      12.805000204154991
   200   1      2.1341667006924987      8.5366668027699948       14.93916690484749
   201   1      2.1341667006924987      8.5366668027699948       17.07333360553999
   202   1      2.1341667006924987      8.5366668027699948       19.20750030623249
   203   1      2.1341667006924987      8.5366668027699948      21.341667006924986
   204   1      2.1341667006924987      8.5366668027699948      23.475833707617486
   205   1      2.1341667006924987      10.670833503462493                       0
   206   1      2.1341667006924987      10.670833503462493      2.1341667006924987
   207   1      2.1341667006924987      10.670833503462493      4.2683334013849974
   208   1      2.1341667006924987      10.670833503462493      6.4025001020774965
   209   1      2.1341667006924987      10.670833503462493      8.5366668027699948
   210   1      2.1341667006924987      10.670833503462493      10.670833503462493
   211   1      2.1341667006924987      10.670833503462493      12.805000204154991
   212   1      2.1341667006924987      10.670833503462493       14.93916690484749
   213   1      2.1341667006924987      10.670833503462493       17.07333360553999
   214   1      2.1341667006924987      10.670833503462493       19.20750030623249
   215   1      2.1341667006924987      10.670833503462493      21.341667006924986
   216   1      2.1341667006924987      10.670833503462493      23.475833707617486
   217   1      2.1341667006924987      12.805000204154991                       0
   218   1      2.1341667006924987      12.805000204154991      2.1341667006924987
   219   1      2.1341667006924987      12.805000204154991      4.2683334013849974
   220   1      2.1341667006924987      12.805000204154991      6.4025001020774965
   221   1      2.1341667006924987      12.805000204154991      8.5366668027699948
   222   1      2.1341667006924987      12.805000204154991      10.670833503462493
   223   1      2.1341667006924987      12.805000204154991      12.805000204154991
   224   1      2.1341667006924987      12.805000204154991       14.93916690484749
   225   1      2.1341667006924987      12.805000204154991       17.07333360553999
   226   1      2.1341667006924987      12.805000204154991       19.20750030623249
   227   1      2.1341667006924987      12.805000204154991      21.341667006924986
   228   1      2.1341667006924987      12.805000204154991      23.475833707617486
   229   1      2.1341667006924987       14.93916690484749                       0
   230   1      2.1341667006924987       14.93916690484749      2.1341667006924987
   231   1      2.1341667006924987       14.93916690484749      4.2683334013849974
   232   1      2.1341667006924987       14.93916690484749      6.4025001020774965
   233   1      2.1341667006924987       14.93916690484749      8.5366668027699948
   234   1      2.1341667006924987       14.93916690484749      10.670833503462493
   235   1      2.1341667006924987       14.93916690484749      12.805000204154991
   236   1      2.1341667006924987       14.93916690484749       14.93916690484749
   237   1      2.1341667006924987       14.93916690484749       17.07333360553999
   238   1      2.1341667006924987       14.93916690484749       19.20750030623249
   239   1      2.1341667006924987       14.93916690484749      21.341667006924986
   240   1      2.1341667006924987       14.93916690484749      23.475833707617486
   241   1      2.1341667006924987       17.07333360553999                       0
   242   1      2.1341667006924987       17.07333360553999      2.1341667006924987
   243   1      2.1341667006924987       17.07333360553999      4.2683334013849974
   244   1      2.1341667006924987       17.07333360553999      6.4025001020774965
   245   1      2.1341667006924987       17.07333360553999      8.5366668027699948
   246   1      2.1341667006924987       17.07333360553999      10.670833503462493
   247   1      2.1341667006924987       17.07333360553999      12.805000204154991
   248   1      2.1341667006924987       17.07333360553999       14.93916690484749
   249   1      2.1341667006924987       17.07333360553999       17.07333360553999
   250   1      2.1341667006924987       17.07333360553999       19.20750030623249
   251   1      2.1341667006924987       17.07333360553999      21.341667006924986
   252   1      2.1341667006924987       17.07333360553999      23.475833707617486
   253   1      2.1341667006924987       19.20750030623249                       0
   254   1      2.1341667006924987       19.20750030623249      2.1341667006924987
   255   1      2.1341667006924987       19.20750030623249      4.2683334013849974
   256   1      2.1341667006924987       19.20750030623249      6.4025001020774965
   257   1      2.1341667006924987       19.20750030623249      8.5366668027699948
   258   1      2.1341667006924987       19.20750030623249      10.670833503462493
   259   1      2.1341667006924987       19.20750030623249      12.805000204154991
   260   1      2.1341667006924987       19.20750030623249       14.93916690484749
   261   1      2.1341667006924987       19.20750030623249       17.07333360553999
   262   1      2.1341667006924987       19.20750030623249       19.20750030623249
   263   1      2.1341667006924987       19.20750030623249      21.341667006924986
   264   1      2.1341667006924987       19.20750030623249      23.475833707617486
   265   1      2.1341667006924987      21.341667006924986                       0
   266   1      2.1341667006924987      21.341667006924986      2.1341667006924987
   267   1      2.1341667006924987      21.341667006924986      4.2683334013849974
   268   1      2.1341667006924987      21.341667006924986      6.4025001020774965
   269   1      2.1341667006924987      21.341667006924986      8.5366668027699948
   270   1      2.1341667006924987      21.341667006924986      10.670833503462493
   271   1      2.1341667006924987      21.341667006924986      12.805000204154991
   272   1      2.1341667006924987      21.341667006924986       14.93916690484749
   273   1      2.1341667006924987      21.341667006924986       17.07333360553999
   274   1      2.1341667006924987      21.341667006924986       19.20750030623249
   275   1      2.1341667006924987      21.341667006924986      21.341667006924986
   276   1      2.1341667006924987      21.341667006924986      23.475833707617486
   277   1      2.1341667006924987      23.475833707617486                       0
   278   1      2.1341667006924987      23.475833707617486      2.1341667006924987
   279   1      2.1341667006924987      23.475833707617486      4.2683334013849974
   280   1      2.1341667006924987      23.475833707617486      6.4025001020774965
   281   1      2.1341667006924987      23.475833707617486      8.5366668027699948
   282   1      2.1341667006924987      23.475833707617486      10.670833503462493
   283   1      2.1341667006924987      23.475833707617486      12.805000204154991
   284   1      2.1341667006924987      23.475833707617486       14.93916690484749
   285   1      2.1341667006924987      23.475833707617486       17.07333360553999
   286   1      2.1341667006924987      23.475833707617486       19.20750030623249
   287   1      2.1341667006924987      23.475833707617486      21.341667006924986
   288   1      2.1341667006924987      23.475833707617486      23.475833707617486
   289   1      4.2683334013849974                       0                       0
   290   1      4.2683334013849974                       0      2.1341667006924987
   291   1      4.2683334013849974                       0      4.2683334013849974
   292   1      4.2683334013849974                       0      6.4025001020774965
   293   1      4.2683334013849974                       0      8.5366668027699948
   294   1      4.2683334013849974                       0      10.670833503462493
   295   1      4.2683334013849974                       0      12.805000204154991
   296   1      4.2683334013849974                       0       14.93916690484749
   297   1      4.2683334013849974                       0       17.07333360553999
   298   1      4.2683334013849974                       0       19.20750030623249
   299   1      4.2683334013849974                       0      21.341667006924986
   300   1      4.2683334013849974                       0      23.475833707617486
   301   1      4.2683334013849974      2.1341667006924987                       0
   302   1      4.2683334013849974      2.1341667006924987      2.1341667006924987
   303   1      4.2683334013849974      2.1341667006924987      4.2683334013849974
   304   1      4.2683334013849974      2.1341667006924987      6.4025001020774965
   305   1      4.2683334013849974      2.1341667006924987      8.5366668027699948
   306   1      4.2683334013849974      2.1341667006924987      10.670833503462493
   307   1      4.2683334013849974      2.1341667006924987      12.805000204154991
   308   1      4.2683334013849974      2.1341667006924987       14.93916690484749
   309   1      4.2683334013849974      2.1341667006924987       17.07333360553999
   310   1      4.2683334013849974      2.1341667006924987       19.20750030623249
   311   1      4.2683334013849974      2.1341667006924987      21.341667006924986
   312   1      4.2683334013849974      2.1341667006924987      23.475833707617486
   313   1      4.2683334013849974      4.2683334013849974                       0
   314   1      4.2683334013849974      4.2683334013849974      2.1341667006924987
   315   1      4.2683334013849974      4.2683334013849974      4.2683334013849974
   316   1      4.2683334013849974      4.2683334013849974      6.4025001020774965
   317   1      4.2683334013849974      4.2683334013849974      8.5366668027699948
   318   1      4.2683334013849974      4.2683334013849974      10.670833503462493
   319   1      4.2683334013849974      4.2683334013849974      12.805000204154991
   320   1      4.2683334013849974      4.2683334013849974       14.93916690484749
   321   1      4.2683334013849974      4.2683334013849974       17.07333360553999
   322   1      4.2683334013849974      4.2683334013849974       19.20750030623249
   323   1      4.2683334013849974      4.2683334013849974      21.341667006924986
   324   1      4.2683334013849974      4.2683334013849974      23.475833707617486
   325   1      4.2683334013849974      6.4025001020774965                       0
   326   1      4.2683334013849974      6.4025001020774965      2.1341667006924987
   327   1      4.2683334013849974      6.4025001020774965      4.2683334013849974
   328   1      4.2683334013849974      6.4025001020774965      6.4025001020774965
   329   1      4.2683334013849974      6.4025001020774965      8.5366668027699948
   330   1      4.2683334013849974      6.4025001020774965      10.670833503462493
   331   1      4.2683334013849974      6.4025001020774965      12.805000204154991
   332   1      4.2683334013849974      6.4025001020774965       14.93916690484749
   333   1      4.2683334013849974      6.4025001020774965       17.07333360553999
   334   1      4.2683334013849974      6.4025001020774965       19.20750030623249
   335   1      4.2683334013849974      6.4025001020774965      21.341667006924986
   336   1      4.2683334013849974      6.4025001020774965      23.475833707617486
   337   1      4.2683334013849974      8.5366668027699948                       0
   338   1      4.2683334013849974      8.5366668027699948      2.1341667006924987
   339   1      4.2683334013849974      8.5366668027699948      4.2683334013849974
   340   1      4.2683334013849974      8.5366668027699948      6.4025001020774965
   341   1      4.2683334013849974      8.5366668027699948      8.5366668027699948
   342   1      4.2683334013849974      8.5366668027699948      10.670833503462493
   343   1      4.2683334013849974      8.5366668027699948      12.805000204154991
   344   1      4.2683334013849974      8.5366668027699948       14.93916690484749
   345   1      4.2683334013849974      8.5366668027699948       17.07333360553999
   346   1      4.2683334013849974      8.5366668027699948       19.20750030623249
   347   1      4.2683334013849974      8.5366668027699948      21.341667006924986
   348   1      4.2683334013849974      8.5366668027699948      23.475833707617486
   349   1      4.2683334013849974      10.670833503462493                       0
   350   1      4.2683334013849974      10.670833503462493      2.1341667006924987
   351   1      4.2683334013849974      10.670833503462493      4.2683334013849974
   352   1      4.2683334013849974      10.670833503462493      6.4025001020774965
   353   1      4.2683334013849974      10.670833503462493      8.5366668027699948
   354   1      4.2683334013849974      10.670833503462493      10.670833503462493
   355   1      4.2683334013849974      10.670833503462493      12.805000204154991
   356   1      4.2683334013849974      10.670833503462493       14.93916690484749
   357   1      4.2683334013849974      10.670833503462493       17.07333360553999
   358   1      4.2683334013849974      10.670833503462493       19.20750030623249
   359   1      4.2683334013849974      10.670833503462493      21.341667006924986