-3.902543289100000038e+03
-3.907571077999999943e+03
-3.964553895399999874e+03
-3.978967069499999980e+03
-3.979736537199999930e+03
-3.967974279399999887e+03
-3.977903664899999967e+03
-3.979654379799999788e+03
-3.983787110799999937e+03
-3.968490173900000173e+03
-3.946832081399999879e+03
-3.893184271699999954e+03
-3.939967868700000054e+03
-3.994918607099999917e+03
-3.994907506800000192e+03
-3.994011865099999795e+03
-3.985712748800000099e+03
-3.972499034800000118e+03
-3.997013249600000108e+03
-3.985876343699999779e+03
-3.989324524999999994e+03
-3.900961579499999971e+03
-3.981224538500000108e+03
-3.936640165899999829e+03
-3.990521039700000074e+03
-3.965021981700000197e+03
-3.981882589400000143e+03
-3.999170813700000053e+03
-3.998465642099999968e+03
-3.999765896800000064e+03
-4.001408391699999811e+03
-3.988804641300000185e+03
-3.941652242999999999e+03
-3.991837884500000200e+03
-3.993362466099999892e+03
-3.970219365399999788e+03
-3.975441404400000010e+03
-3.986407460899999933e+03
-3.962107679199999893e+03
-3.958240212900000188e+03
-3.953159935300000143e+03
-3.974005336199999874e+03
-3.941077378200000112e+03
-3.968797591000000011e+03
-3.949248523499999919e+03
-3.954508925300000101e+03
-3.929862964500000089e+03
-3.954080445699999927e+03
-3.967468330300000162e+03
-3.962647729299999810e+03
-3.950612957199999983e+03
-3.960481308800000079e+03
-3.962874335099999826e+03
-3.976969971699999860e+03
-3.983475738799999817e+03
-3.921802670000000035e+03
-3.982285292399999889e+03
-3.983535161499999958e+03
-3.972103070699999989e+03
-3.978823313599999892e+03
-3.976606637700000192e+03
-3.966946575899999971e+03
-3.974412693000000218e+03
-3.978397719900000084e+03
-3.970528888599999846e+03
-3.989604367599999932e+03
-3.976898822199999813e+03
-3.983553211699999792e+03
-3.977075907899999947e+03
-3.957789985100000195e+03
-3.977994726299999911e+03
-3.955350148999999874e+03
-3.971836494600000151e+03
-3.985164404499999819e+03
-3.968926741100000072e+03
-3.975690606499999831e+03
-3.977320616299999983e+03
-3.973261330400000134e+03
-3.958168850000000020e+03
-3.979792379399999845e+03
-3.968305047899999863e+03
-3.970729791700000078e+03
-3.968149143399999957e+03
-3.926693290900000193e+03
-3.972063211099999990e+03
-3.996740047700000105e+03
-3.990050787399999990e+03
-3.965325308099999802e+03
-3.982831956600000012e+03
-3.988174626399999852e+03
-3.968023349300000064e+03
-3.937360092700000223e+03
-3.974650400800000170e+03
-3.978642104500000187e+03
-3.987712825499999781e+03
-3.979800845899999786e+03
-3.949937735200000134e+03
-3.962924185800000032e+03
-3.965114976700000170e+03
-3.965284681399999954e+03
-3.963796780900000158e+03
-3.964388576899999862e+03
-3.969496843200000058e+03
-3.958518382000000202e+03
-3.983782450600000175e+03
-3.974035379599999942e+03
-3.958059533199999805e+03
-3.971480336199999783e+03
-3.927375375999999960e+03
