1.257651257999999883e-01 3.491890955999999990e-01 5.879531119999999861e-02 -2.530677190999999771e-01 6.245380040000000216e-02 6.084040434999999913e-01 -1.434906424000000069e-01 -2.294561640000000041e-02 -2.830645216000000075e-01 -1.067292845199999896e+00 -6.269910341000000109e-01 1.170668648000000034e-01 3.836533247000000202e-01 8.651549052000000462e-01 1.113310573799999981e+00 -7.060216260000000410e-02 1.808633206999999965e-01 -1.703708851000000080e-01 1.296140841199999949e+00 9.976550318000000361e-01 4.138258116999999903e-01 5.591518063000000538e-01 9.800840883000000447e-01 -4.981882675000000038e-01 -1.001613787699999980e+00 -1.796892599199999996e+00 3.403920879999999816e-01 2.980018624399999982e+00 -1.823114677399999994e+00 -2.902518767500000152e+00 -1.167642014000000034e-01 1.500494247999999975e-01 1.449217922000000103e-01 1.489811339000000068e-01 3.815108200000000283e-02 -2.585690478000000070e-01 1.088343862699999942e+00 -7.706370027000000178e-01 -4.030909315899999790e+00 -6.345685838000000301e-01 3.400766278999999837e-01 1.534821604999999922e-01 -8.690085849999999723e-02 -7.612345539999999799e-02 -4.151656644000000229e-01 4.722363068000000053e-01 1.674791746000000026e-01 1.207779176000000065e-01 -1.176619039999999977e-01 -1.467564889599999978e+00 8.574759049999999827e-02 3.049545968999999856e-01 1.350711400000000062e-01 4.872099751999999784e-01 1.522227829999999935e-02 -2.474470689000000112e-01 -3.959012078999999962e-01 -2.022524074000000005e-01 -3.169356012999999805e-01 1.458518154000000011e-01 -5.250078360000000333e-02 1.805065462199999970e+00 6.639362985000000217e-01 1.436398512000000016e-01 1.676727590000000045e-01 -5.967715131999999922e-01 3.357256733000000271e-01 3.554478144000000062e-01 -4.296335879999999691e-02 -4.252814157199999556e+00 -9.074231473999999409e+00 4.896320307999999955e+00 2.873070303999999964e-01 3.274515414999999985e-01 2.720691237000000262e-01 6.442812840000000651e-02 -4.816056320000000057e-01 -1.310041264000000039e-01 -4.091329254099999702e+00 2.242400097300000006e+00 -1.057076293499999986e+00 -4.296305579999999680e-02 -2.352057414000000013e-01 -1.540784499999999987e-02 1.509961854999999908e-01 -5.086456420999999617e-01 3.977272599999999783e-03 3.667135769000000045e-01 -4.068140358999999817e-01 -2.911638198000000011e-01 -5.849537711000000195e-01 4.853357624999999897e-01 3.785866694000000199e-01 -5.247697009999999912e-02 -1.349820636999999879e-01 -5.386984290999999869e-01 2.444386108999999918e-01 -3.583180281000000189e-01 -4.364600189999999769e-01 -1.213074425999999928e+00 -5.890747089000000214e-01 -1.767665176299999974e+00 3.987982855000000160e-01 1.057255178699999965e+00 2.045391899300000205e+00 3.959536999000000113e-01 -1.240197762000000009e-01 2.232163783999999984e-01 -3.729152819000000063e-01 7.997774528000000105e-01 -2.317513005999999876e-01 -2.750107674000000224e-01 -1.150066592999999943e-01 1.098240565000000030e-01 5.271384617000000050e-01 1.020006323999999992e-01 -7.317420094000000041e-01 7.582777868000000199e-01 1.364303165000000095e-01 -1.474493427000000134e-01 -1.211665179999999939e-02 -9.508562169999999758e-02 -2.620726758999999961e-01 1.492336726999999863e-01 -1.751665524000000085e-01 1.528199228000000076e-01 7.870123117200000351e+00 6.748834911700000383e+00 -3.555808249600000082e+00 -3.277337827999999842e-01 -2.184924678999999870e-01 5.190802365000000140e-01 -2.966696348999999788e-01 -1.160647434000000033e-01 -3.008029421000000259e-01 -1.818702292999999914e-01 1.141064383000000015e-01 -4.869780363999999806e-01 -1.911064309000000128e-01 -1.383065404999999914e-01 2.999397422000000257e-01 -1.154435354999999996e-01 3.992986999999999925e-03 -1.791755798000000122e-01 2.830116018000000122e-01 -9.200824571000000285e-01 -2.473436019799999830e+00 -5.834667908999999764e-01 9.763025109999999840e-01 2.280545225300000034e+00 3.120381398000000028e-01 3.546156906999999858e-01 -1.182460156999999984e-01 -8.018361056999999681e-01 -4.372399611000000186e-01 -1.174916024000000059e-01 -2.813853258999999829e-01 -6.494076072000000144e-01 -1.192265618299999996e+00 3.992392786999999776e-01 -4.409812515000000044e-01 1.230888652700000030e+00 -1.022370138799999939e+00 -1.337290149500000025e+00 -4.992651389000000162e-01 6.808845829999999877e-01 4.313558711000000101e-01 1.692734800000000048e-03 -9.702497370000000287e-02 1.322336611000000106e-01 -3.230714070000000049e-02 2.301456950000000112e-01 -1.867682301999999961e-01 -9.369188920000000309e-02 -3.226680085899999995e+00 1.267489321600000052e+00 3.531160437100000049e+00 -8.714311969999999352e-02 4.648605010999999898e-01 4.202412043000000041e-01 2.352101611999999897e-01 1.503676241199999986e+00 -7.535282978999999770e-01 -7.226838619000000019e-01 -5.069148670000000328e-02 4.365460729099999604e+00 8.630181780000000247e-01 4.699986181999999957e-01 -7.012248464000000459e-01 5.089946281999999655e-01 -2.703986856000000216e-01 5.241981288000000516e-01
-1.321117350000000079e-01 -2.970325353000000113e-01 -1.726206854000000013e-01 -9.734968554999999801e-01 -1.729579784400000042e+00 7.633308120999999780e-01 -4.441709878999999805e-01 2.571182055999999827e-01 -2.611122551000000236e-01 1.134278957000000032e+00 -3.349579604100000108e+00 1.367781276899999954e+00 -8.014414332499999460e+00 3.331836168100000162e+00 1.685498959600000068e+00 1.145647206100000037e+00 1.583546851499999963e+00 -1.026078249999999928e-02 1.376995783399999951e+00 2.681350619000000268e-01 -1.021058762400000042e+00 1.705155613899999922e+00 1.386590291399999897e+00 8.750080299999999159e-03 -6.540311814999999918e+00 -5.062022436600000397e+00 -1.699383847200000019e+00 1.777301417999999911e-01 5.737163422000000068e-01 1.373361855000000131e-01 -6.892224650000000619e-02 -3.955965481000000006e-01 -7.114504430000000157e-02 1.932862416999999999e-01 1.395426305999999950e-01 -3.003480299999999881e-03 -1.397100258000000039e+00 8.899488740000000009e-02 -5.954237529000000473e-01 7.406441167699999717e+00 4.577190407399999827e+00 1.523653218500000017e+00 -5.108129990000000176e-02 2.650252491000000266e-01 3.288229377999999925e-01 2.803386970999999783e-01 4.037664115999999859e-01 -9.658140307999999452e-01 1.750134786999999914e+00 -8.100308192999999823e-01 2.207198229299999870e+00 6.250580890000000112e-02 2.008296420000000027e-01 1.763935175000000133e-01 -2.080348560000000110e-02 -6.808266000000000318e-03 4.830231314000000276e-01 1.937923785900000029e+00 -5.130013331599999837e+00 2.952712722999999984e-01 5.060166480000000133e-02 -1.876928362999999989e-01 -7.854532599000000337e-01 5.973649980000000220e-02 -1.374452408000000070e-01 2.457639194000000027e-01 -3.030624979000000052e-01 -3.235203318000000050e-01 -4.876949925999999880e-01 4.651697836900000382e+00 2.145811201599999940e+00 -3.123737349399999808e+00 -1.375540991600000096e+00 4.171173771000000197e-01 1.828821941999999867e-01 -5.669707380999999824e-01 2.530386299999999936e-02 -1.912453659999999861e-02 -2.070169570000000153e-02 -6.415614910000000393e-02 2.950417653999999890e-01 1.238769988999999933e-01 -1.058127470000000056e-02 -5.234605300000000350e-03 2.900869019999999937e-02 6.685915795000000328e-01 2.507165423100000012e+00 -7.992531668000000256e-01 1.695993635999999971e-01 -3.343415730000000308e-02 2.471213478000000019e-01 3.878824449000000119e-01 3.122316760000000135e-01 1.376758724499999920e+00 -7.799330674000000130e-01 -1.260442954399999982e+00 7.744560459999999535e-02 -3.648859246000000223e-01 -4.340738560000000079e-02 -4.144905225000000137e-01 -2.559731317999999756e-01 -1.466110495999999874e-01 -1.960451139999999995e-02 -1.613915667999999970e-01 -4.088485820000000159e-01 1.469106884999999973e-01 3.580098570999999952e-01 -1.819770447000000069e-01 -8.246176500000000631e-02 3.451043249999999896e-01 -3.341375246000000132e-01 6.354761759999999482e-02 -1.970654400999999889e-01 2.105881803000000108e-01 -7.000722730000000227e-02 -1.131899696799999910e+00 1.514150441900000033e+00 -9.443240529999999411e-02 1.181852159999999957e-02 -2.257201947999999958e-01 -1.199997207000000066e-01 -7.340449039999999425e-02 1.983293140000000065e-01 2.821508604999999892e-01 -2.901260042000000094e-01 2.360723110000000069e-02 1.987377889999999980e-02 7.237074788999999786e-01 -1.391116256000000106e-01 1.613513332899999986e+00 -9.447131212999999583e-01 -3.752273619999999671e-02 2.080553994000000184e+00 1.714207050600000004e+00 -5.848785711599999715e+00 -2.327051680699999903e+00 -5.358248630999999929e-01 5.028215846400000189e+00 -3.692241243000000117e-01 1.435428936299999902e+00 -5.655045094999999744e-01 1.229231108999999933e-01 3.604986079999999982e-02 -2.761080219999999946e-02 -2.259491326999999994e-01 -2.175499300000000025e-02 -1.355486723999999865e-01 3.274011547999999827e-01 3.792668182000000221e-01 1.548821303000000038e-01 4.804652050000000202e-02 2.255057458999999986e-01 1.381233790000000079e-02 -1.278608105200000011e+00 -8.642574386000000386e-01 -1.702168330000000118e-01 -3.084517117000000197e-01 4.596184938000000275e-01 -6.086315400000000264e-03 -8.355215409999999787e-02 -7.943342330000000007e-02 -1.900873590000000113e-01 -3.368527213600000181e+00 1.937188841700000053e+00 -5.396305586999999848e-01 9.908553350000000315e-02 -2.228142492999999891e-01 -1.710107878000000081e-01 7.677090629999999694e-02 -2.342381027000000060e-01 1.451153733999999973e-01 9.893895204999999526e-01 -2.154803982299999809e+00 -7.491622929000000264e-01 3.436530796000000221e-01 9.497445078999999790e-01 -1.073049056299999915e+00 1.773041381999999888e-01 -1.235207232100000052e+00 2.054735514000000096e-01 -1.592639544999999990e-01 2.416068399000000089e-01 2.885755285000000114e-01 -8.103557341999999553e-01 1.495671715400000101e+00 6.807768873999999748e-01 1.207092602000000015e-01 -2.557242607999999917e-01 6.408691289000000291e-01 1.414030141000000018e-01 1.039831747000000001e-01 -1.155670124000000021e-01
-3.460655408000000155e-01 3.203093294000000091e-01 1.587856770999999945e-01 1.970653210300000069e+00 -7.440165842999999501e-01 -5.334708729999999843e-02 1.700393719999999942e-02 -6.964706369999999758e-02 -2.418090726000000079e-01 3.858803494999999972e-01 2.301759094999999977e-01 -3.188415386999999823e-01 -4.892337525000000076e-01 -1.505295262000000134e-01 5.597788666999999885e-01 5.155128621000000244e-01 -6.163012100000000298e-03 4.431747979999999809e-01 4.270394549000000040e-01 1.033550259799999926e+00 -5.733281571999999660e-01 1.680791550999999884e-01 -2.424731921999999928e-01 -3.084320573000000065e-01 3.309948610999999818e-01 -6.817159734000000082e-01 -2.865451601999999820e-01 -6.459477580000000385e-02 -1.618681119000000002e-01 -7.378153000000000142e-03 2.156743137000000088e-01 -3.996739099999999795e-02 -4.521557775000000223e-01 -3.737735361000000256e-01 3.065745516000000226e-01 3.498344292000000189e-01 -6.699049390000000326e-02 6.488011370999999805e-01 -2.537819552000000201e-01 -4.554694460000000000e-01 1.931608558000000031e-01 -6.488431059999999473e-02 -1.466595323000000062e-01 3.896883194999999911e-01 2.253387839999999864e-01 1.779400027599999934e+00 1.583604249700000022e+00 -4.760337588399999653e+00 -4.147550858999999868e-01 1.472568424199999892e+00 -2.100835917599999991e+00 -9.869251160999999994e-01 4.312947189399999992e+00 1.319391668099999970e+00 -3.270995777999999854e-01 -3.408823846999999851e-01 -7.146594700000000189e-02 5.118186007999999676e-01 2.486324477000000088e-01 7.816502270000000308e-02 -1.092475783600000083e+00 2.184010465000000012e-01 -1.396383596000000116e-01 -1.614772676000000018e-01 -6.937923129999999938e-01 -6.101126788999999828e-01 -1.204662905000000034e-01 -4.175331696999999842e-01 -9.310108029999999979e-02 -6.443156969000000123e-01 7.628805314000000060e-01 -1.744321990000000100e-01 -2.834196950999999798e-01 -4.137291469000000110e-01 4.411181248000000110e-01 6.758228853000000091e-01 -2.647909226499999935e+00 -1.048750172000000092e+00 -8.061190869999999842e-02 -3.970581190999999954e-01 1.775826400000000017e-03 1.089542506599999960e+00 -9.643938528000000066e-01 2.260257721599999936e+00 -3.265124229500000030e+00 2.809350008900000084e+00 1.642883783899999894e+00 -1.156399900000000102e-03 1.605358798899999995e+00 -9.604904827000000367e-01 1.367878750000000032e-01 4.995486774999999824e-01 1.068629086000000006e-01 2.367368454999999872e-01 2.075641216100000186e+00 5.686095681999999707e-01 3.583979010000000187e-01 -7.666354470000000254e-02 -6.767092639999999770e-02 4.504720595999999744e-01 -1.047482810600000036e+00 2.241873505800000110e+00 -2.017905368000000033e-01 -4.176313229999999849e-02 -4.010014330000000182e-02 -1.683828897999999907e-01 -4.039627682999999969e-01 -1.840266232999999974e-01 -1.893138692000000123e-01 -2.737965831999999988e-01 4.138948685000000127e-01 2.249866006000000029e-01 -9.241681177999999663e-01 -2.648253001900000125e+00 3.999327352000000002e-01 -3.384420009999999923e-02 2.609645030000000143e-01 -1.146329095000000048e-01 3.448000192999999824e-01 1.738571415999999870e-01 -8.595823180999999646e-01 2.480313590100000187e+00 1.298457979099999937e+00 -1.029323525199999922e+00 1.181379169800000017e+00 6.159790907000000093e-01 -1.761397601999999951e-01 4.979205920000000229e-02 -1.841933943000000073e-01 -8.921084020999999753e-01 -2.067794955400000134e+00 -1.247223056999999941e-01 9.777753585999999775e-01 8.150329450000000087e-01 1.447334317900000000e+00 3.468358942800000122e+00 1.011704737599999904e+00 -9.544099632000000444e-01 -2.576621506800000017e+00 -1.010588551299999915e+00 -9.484061068000000372e-01 6.365981830000000397e-02 -6.702541319999999470e-02 2.008437043999999894e-01 4.239405226999999887e-01 -6.074351456000000038e-01 -5.358771933000000542e-01 3.007102220999999798e-01 -2.776860334999999846e-01 1.883519466999999947e-01 -1.104354693499999929e+00 2.151813732199999940e+00 2.102970741400000065e+00 5.554481189000000096e-01 -7.804548077799999817e+00 -3.776581766200000079e+00 2.659180717999999888e-01 -1.759051878000000013e-01 -1.298911087000000075e-01 -7.984684671999999761e-01 -5.484436720000000071e-02 -4.542637708999999746e-01 2.696710529499999787e+00 -1.112489891699999900e+00 -9.472925599999999433e-03 9.646230621000000394e-01 -1.959672930999999951e-01 -2.417654397200000194e+00 -5.865602250000000184e-02 5.045856002999999923e-01 -2.756473426000000115e-01 2.547314586000000158e-01 -3.414746645000000247e-01 -6.680511286000000437e-01 -2.503474858600000186e+00 -1.178949867300000065e+00 1.650024491099999935e+00 -7.099262749000000428e-01 -9.057634257000000133e-01 5.628399120000000533e-01 1.268172093000000000e+00 -4.067430473199999952e+00 -4.528920842999999974e-01 -4.598286900000000260e-02 3.233386116600000193e+00 7.277774381300000428e+00 -8.852329225999999718e-01 4.503748569999999757e-02 -6.334004758000000290e-01 4.998215758999999814e-01 1.122251628999999945e-01 4.340385903999999795e-01
-2.481669198600000126e+00 2.665448520700000046e+00 -1.409430558099999953e+00 1.272707609500000059e+00 -7.588353076999999614e-01 -1.764516263800000040e+00 1.140433219800000009e+00 8.435709193000000550e-01 -1.410817168899999974e+00 -4.479419023999999805e-01 -9.106087328999999952e-01 -6.569153563999999834e-01 5.532106522999999942e-01 -1.288751420699999928e+00 2.511632585700000142e+00 9.889149357100000870e+00 3.886608569499999888e+00 -6.888349938800000238e+00 -3.842815839400000044e+00 1.768903313999999893e-01 1.120524290299999892e+00 4.462599157399999683e+00 -6.616373558999999460e-01 -1.483838869900000024e+00 -2.195269139700000149e+00 2.474855590399999805e+00 -7.796445107999999680e-01 5.452004434999999649e-01 -9.873533411999999565e-01 2.011504444699999894e+00 -4.482804110000000036e-02 -9.681883469999999492e-02 7.055215160000000152e-02 -9.583778563000000528e-01 2.739808799600000011e+00 -9.884301657999999824e-01 -7.756881696999999853e-01 2.241267336199999960e+00 2.522229314800000122e+00 -1.269678352099999907e+00 1.107175863199999943e+00 -2.692366967000000000e-01 3.101939276999999828e-01 1.136908069500000007e+00 -1.494456891000000009e-01 -3.265482107000000078e-01 -3.516231460000000114e-02 -3.437262111000000120e-01 -9.866201145999999866e-01 1.722665746299999912e+00 4.678778055000000213e-01 9.197041208999999773e-01 -1.604330489999999942e-01 -8.658527972999999767e-01 -1.495402700599999912e+00 8.347758180000000028e-01 -1.893466259400000018e+00 1.041663478999999976e-01 3.067511061699999875e+00 1.173332126200000047e+00 -1.048977759999999981e-01 2.143066238000000123e-01 4.457324409999999931e-02 -3.337629081699999833e+00 4.369062087399999683e+00 -2.000264872699999863e+00 -1.631314513099999974e+00 1.022811565000000034e+00 1.322652292000000007e-01 1.214159118300000006e+00 -4.435460949000000208e-01 8.818397155999999626e-01 -4.556615900000000191e-02 -6.152082932000000337e-01 4.597534333000000140e-01 2.258542236199999831e+00 -4.591171282900000428e+00 1.441568763800000097e+00 -2.637795749899999986e+00 1.010105337499999978e+00 -2.367591431200000152e+00 1.304674778000000090e-01 -1.655678252199999978e+00 1.939431564900000016e+00 -3.837565018999999911e-01 -7.393847726000000176e-01 -1.560078027000000034e-01 -1.495990721999999884e-01 1.389821475999999945e-01 1.641409446000000050e-01 -6.640877766999999654e-01 1.460763375999999947e-01 1.293185020099999916e+00 -2.123645031999999988e-01 4.488589203000000194e-01 2.273948875000000036e-01 -1.158389231399999941e+00 -2.389004836999999992e-01 -6.911733584999999458e-01 -8.339148329999999942e-02 2.933694949999999801e-01 -9.670117163000000460e-01 1.204833726800000004e+00 -1.554503754399999993e+00 2.504405152999999995e-01 -3.946367733599999816e+00 1.949937935899999975e+00 -1.258723620999999904e+00 -1.360731277999999989e-01 3.544321212000000054e-01 1.253699288000000023e-01 2.266320827799999993e+00 -3.113167125899999998e+00 2.099479824499999925e+00 -5.341341552999999687e-01 6.207531354999999973e-01 3.957173399999999730e-02 2.947269809499999837e+00 -1.990682764500000035e+00 -4.808344574000000260e-01 -3.832250970000000007e-02 6.482325408000000344e-01 5.029274371999999937e-01 5.626735287999999890e-01 7.616530766000000341e-01 8.437291549000000002e-01 9.864502224000000208e-01 -2.226575490400000135e+00 4.282822503000000003e-01 9.115553734000000352e-01 -4.762167929999999716e-02 2.807322266999999760e-01 -2.441655299999999917e-01 8.749647480000000144e-01 1.042998007000000005e-01 -1.318096427900000034e+00 -1.192070504000000003e-01 4.402169758000000210e-01 -5.367466297999999858e-01 -2.487272383600000136e+00 -7.400439774000000526e-01 -3.743452903999999748e-01 -2.973813029999999857e-02 3.376514340999999808e-01 -2.573115735000000015e-01 -5.514869140999999475e-01 -4.550984884000000008e-01 -6.272426247000000288e-01 -9.823345379000000266e-01 -1.249262621000000045e-01 -4.985673247600000302e+00 -5.814398663899999598e+00 6.508079556700000268e+00 2.042408694400000169e+00 1.023790360000000066e-01 -4.484123480000000161e-01 3.782648177999999861e-01 7.470986860000000673e-02 -1.919509524999999939e-01 -1.071462209999999964e-02 -2.211317700000000209e-03 1.307965250300000104e+00 9.605907380000000551e-02 1.620921232599999984e+00 4.487438790000000122e-01 1.021781700000000057e-02 -2.968340430000000058e-02 -1.959830404000000026e-01 4.285496923000000069e-01 -1.325185450000000015e-02 -2.779529960000000077e-01 1.573360625699999904e+00 -1.468899345000000078e+00 -1.823067660600000028e+00 -1.571669645999999865e-01 -1.324014142700000063e+00 -9.275524090000000221e-01 6.961088238999999511e-01 4.651877120000000310e-02 -2.269581499999999852e-03 1.416075486800000061e+00 -2.487117663399999845e+00 5.968777188999999650e-01 3.380899005999999929e-01 -4.651055326999999906e-01 1.020674929999999953e-01 4.500644924000000158e-01 3.470207700999999867e-01 8.480746855999999889e-01 -7.088447716000000343e-01 -5.182108540000000124e-02 2.862200743000000158e-01
-3.989149893000000224e-01 -7.395359687000000459e-01 2.834198103099999866e+00 -2.143930813999999907e-01 1.868508299999999955e-01 -7.857638499999999859e-02 2.044928902800000170e+00 1.614098495899999985e+00 -6.849401841000000157e-01 6.549441185000000054e-01 -3.640787728000000056e-01 1.234221197299999906e+00 3.804194505999999865e-01 3.441000041000000231e-01 -1.038012331200000027e+00 -1.494134991000000134e-01 -3.365227492000000264e-01 -1.179529707000000066e-01 6.729339319999999569e-01 3.292381087399999906e+00 -3.577576349000000100e-01 -5.953477052000000214e-01 3.238615415599999992e+00 6.062603634000000019e-01 2.027970989000000002e-01 9.513990229999999548e-02 -4.966146931000000042e-01 5.652802030000000366e-01 -8.334751816000000035e-01 -2.588102798900000057e+00 2.775266384600000080e+00 1.050122769599999950e+00 9.533313340000000580e-02 1.312320437799999961e+00 -1.243693101100000087e+00 1.355984759100000048e+00 -8.087204100999999534e-01 -5.876666982999999567e-01 -6.659558910999999748e-01 1.000941109800000062e+00 -1.056519860899999941e+00 -2.117715805000000007e-01 2.796226690100000134e+00 -2.509567283199999999e+00 -1.858008227400000045e+00 -4.422995989999999739e-02 6.631617550000000472e-02 2.316534209999999983e-01 -5.096747722000000147e-01 -2.918707429999999881e-01 -4.073477329999999896e-01 -1.919808000700000017e+00 -2.467521863199999999e+00 8.477306953000000034e-01 1.990140928999999947e-01 2.699930789000000164e-01 6.649724000000000086e-03 -9.952411090999999654e-01 1.110331060300000061e+00 2.205969335299999834e+00 1.314812986999999989e-01 -1.292775790000000036e-01 6.759354574000000504e-01 -1.408998861499999977e+00 -3.634118525499999919e+00 -1.011200002899999895e+00 6.129441329999999466e-01 -2.718233993999999987e-01 -2.620610019999999873e-01 4.601181900000000068e-03 -1.817043013000000096e-01 2.067851165000000047e-01 6.088536220000000387e-01 1.464328125000000091e-01 -7.084667512000000222e-01 1.924876953999999918e-01 -2.122463152000000075e-01 5.098457320000000514e-01 -2.630070318600000068e+00 1.120961317599999951e+00 -2.263149723699999782e+00 -2.316570475199999812e+00 1.828752308699999940e+00 3.326648565400000201e+00 5.734263103600000022e+00 -1.891518140000000014e-01 9.169476930000000081e-01 1.865760992999999923e-01 -2.303363800000000072e+00 -1.498056692999999995e-01 -3.565516561000000029e-01 1.271371100000000087e+00 -3.949964598999999854e-01 -4.653939837000000135e-01 -4.324249312999999817e-01 -9.775216679999999825e-02 -1.078574798600000051e+00 1.290012786499999953e+00 1.256730172799999989e+00 -2.009010620399999780e+00 -7.323084859999999807e-01 8.217418545000000352e-01 7.862236176000000354e-01 1.772474648900000060e+00 2.017847724100000129e+00 -7.558020364999999963e-01 2.559485080500000009e+00 5.446801879999999541e-01 -5.233272825000000461e-01 1.032995773799999961e+00 -1.334913005900000060e+00 9.809006505999999792e-01 -2.012028848999999897e-01 -8.313351491999999565e-01 -1.426688285400000034e+00 -1.544238514099999904e+00 -9.456166461999999662e-01 4.938874779999999909e-01 5.618981594999999940e-01 -3.324796482300000022e+00 4.268207289000000015e-01 -9.713738489999999837e-02 7.426665229999999951e-02 -1.436164266300000047e+00 -1.583386914599999917e+00 3.432576454999999860e-01 -1.058334058400000055e+00 1.541669555599999963e+00 -1.213693797499999949e+00 2.282775214099999950e+00 1.283450257299999953e+00 -1.566938398000000121e-01 4.779420549999999768e-01 -2.012055951699999845e+00 1.181964404999999996e-01 9.990792236000000104e-01 3.313283100900000111e+00 1.601353880999999979e-01 6.669660978000000462e-01 4.222375525000000018e-01 6.705047298999999850e-01 1.724336193999999878e-01 -1.399711002000000037e-01 9.369682890000000097e-02 1.375711115899999948e+00 -1.669867656999999950e+00 -1.143760498300000039e+00 -2.261082234000000024e-01 -2.327166233999999889e-01 -3.536267003999999936e-01 4.991455544000000244e-01 6.829053451000000052e-01 1.603847761399999960e+00 8.125792791999999487e-01 1.700254383499999911e+00 -7.537387531999999446e-01 -9.345559560199999893e+00 -9.661857456899999974e+00 2.839227784100000207e+00 -6.591709447000000388e-01 1.343338776099999965e+00 5.308343600000000294e-03 4.457619918199999809e+00 9.667599685500000817e+00 -5.050580539400000291e+00 -1.326037838199999985e+00 -2.740425901400000086e+00 -7.606341688000000101e-01 -1.825803818500000064e+00 -2.107518324700000001e+00 3.988274475999999957e-01 2.907802066499999949e+00 -1.568532506099999946e+00 -2.383112757600000187e+00 -9.755434525999999718e-01 3.935451289999999935e-01 -2.256004178999999887e-01 1.131909672199999939e+00 2.069229540000000131e-02 1.314982327400000095e+00 -1.074193815999999968e+00 -1.811202773800000054e+00 1.548386299799999977e+00 -1.545825516999999871e-01 -1.202185466000000036e-01 6.413098859999999402e-02 -1.784496289900000088e+00 -7.147884679999999546e-02 2.945991938700000201e+00 -7.534918120000000386e-02 8.573738724999999672e-01 -5.348849999999999612e-03
2.613180000000000103e-03 -1.611552931000000133e-01 -5.042416052000000537e-01 1.966124610999999966e-01 5.968609848000000495e-01 9.901082829999999779e-01 -2.644434331000000138e-01 -8.579781428999999626e-01 4.734030942999999936e-01 -7.155920372999999834e-01 1.562527209000000028e-01 -5.076329073999999997e-01 1.297649128800000051e+00 2.233068092099999902e+00 1.705641050000000075e-02 1.859255944000000049e-01 -4.874436583999999795e-01 -2.970829996000000084e-01 5.071433940000000251e-02 1.261130963899999902e+00 -7.806219250000000498e-01 9.515463022300000517e+00 -5.640591971600000143e+00 5.313066310099999967e+00 2.536467178999999850e-01 4.283279301999999844e-01 -3.007856454000000235e-01 -9.541420979999999663e-02 4.686970919999999818e-02 1.640584479999999956e-01 -8.509428959999999764e-02 -3.074003469999999835e-02 -1.861952796999999937e-01 -5.355879974999999682e-01 -5.764200899999999579e-03 -8.238454685999999638e-01 -3.901202410999999870e-01 1.753632834500000071e+00 -6.107331969999999499e-01 2.202951023099999794e+00 1.084694999599999932e+00 -9.577193440000000280e-01 4.916723758000000055e-01 7.435051699999999618e-03 -1.807394845999999999e-01 9.351232139300000412e+00 4.024494380600000198e+00 -3.581475392899999832e+00 -1.365052842899999952e+00 -2.757324091999999727e-01 1.100113052199999997e+00 -9.380368250999999713e-01 1.343337495799999948e+00 -3.044307921000000139e-01 -4.780595390000000333e-02 -3.538369588999999982e-01 -3.369630007000000149e-01 3.260092343000000059e-01 -9.659907420000000133e-01 1.011809163199999917e+00 1.348742347999999924e-01 2.360353973000000050e-01 9.304892010000000158e-02 -1.013491147000000064e-01 2.838864621000000144e-01 3.176858162999999791e-01 2.370202653000000048e-01 4.910109530000000139e-02 -2.391423990000000055e-01 3.905735280000000031e-02 -7.172355950000000591e-02 -4.237492267999999895e-01 8.319082996000000119e-01 -1.152142428999999996e-01 3.906639564000000120e-01 1.903330149999999873e-02 1.681307085000000034e-01 4.096065425000000038e-01 -2.613690761400000007e+00 -7.443330406999999482e-01 1.183468417700000108e+00 -2.697162260000000172e-02 -1.506725664199999981e+00 5.956965740999999870e-01 -1.822016921000000067e-01 3.104618085999999999e-01 -3.118252997000000026e-01 6.830825337999999469e-01 -1.115471303399999892e+00 -3.632381869999999902e-01 -4.519244332399999564e+00 -4.166179150000000331e-02 5.919003927000000553e-01 8.699707959999999907e-02 -7.988473030999999613e-01 2.350265165400000189e+00 -1.513501903100000101e+00 9.265084567000000382e-01 -2.733594076500000192e+00 -1.198454512499999902e+00 -1.490356305999999964e-01 -1.094916785199999909e+00 -4.306358272999999959e-01 -6.364944543999999649e-01 2.089886460499999821e+00 3.423067275000000187e-01 7.869525134999999505e-01 1.360452335199999974e+00 -6.082390673999999997e-01 -1.276500393899999919e+00 6.241409546999999947e+00 -5.252329570000000003e-02 2.703744158999999980e-01 1.101237746000000017e-01 1.499815768999999965e-01 -1.539289744000000015e-01 -4.998593070999999832e-01 -7.798461034000000458e-01 -4.282313489099999870e+00 -3.285543018899999890e+00 -6.174779714000000475e-01 5.014840143499999847e+00 -8.292676060000000460e-01 2.117622406100000187e+00 3.335404439999999915e-01 -9.650263226999999944e-01 1.643196868000000033e-01 9.193033130000000108e-02 1.263394813000000005e-01 -6.913328989400000069e+00 8.062537538999999143e+00 -7.624491294300000277e+00 -4.756213396999999787e-01 -3.411870007000000204e-01 -5.849155633000000520e-01 1.377924011900000023e+00 -1.163038358499999925e+00 4.043009757000000093e-01 -5.561907121000000398e-01 9.685333979999999343e-02 -3.595266683000000185e-01 6.700276378999999727e-01 -5.958130789000000149e-01 4.389453345000000062e-01 1.523581902499999918e+00 -2.431875047200000139e+00 2.686727414399999958e+00 -1.238549364899999894e+00 -7.111299742000000146e-01 -1.588849169600000000e+00 2.547452693999999740e-01 -1.710485629999999868e-02 -1.349954148999999992e-01 -1.231730707899999944e+00 -2.764244747999999863e+00 4.199141740999999817e-01 -4.060682065999999812e-01 -6.019997300999999634e-01 1.959387439999999980e-01 9.176930692000000445e-01 1.682526446700000067e+00 1.177794942500000053e+00 5.993452632000000335e-01 -8.526436813000000114e-01 8.424488740000000142e-01 1.416983200800000064e+00 1.631852305200000020e+00 -1.604537557600000053e+00 3.052406022999999968e-01 7.814658130000000369e-02 9.513220360000000653e-02 -3.448496844300000141e+00 -1.546750793999999984e-01 -7.228408599999999740e-03 1.653022248999999888e-01 2.605340803000000260e-01 7.946646151999999796e-01 3.613882398000000107e-01 1.790818560999999920e-01 1.525248416999999967e-01 4.918212739999999750e-01 1.889142580000000016e-01 6.946276165000000447e-01 -3.854547085000000206e-01 -2.579954400999999731e-01 3.896727960000000157e-02 4.231423460400000280e+00 7.545231027000000035e-01 -4.210409956400000375e+00 -9.259443929699999742e+00 -4.779646194799999748e+00 3.361434143299999899e+00