4.361468917292665282e+00 1.080656085746768902e+01 6.402102655114934926e+00 2.373146771195931010e-02 1.044751446938895256e+01 5.717289674781222963e+00 9.196723956605184824e+00 5.021020381291096513e+00 5.462586018669701282e+00 1.002853511185825752e+01 1.814004155915193595e+00 9.988535443722012630e+00 7.988727244614181267e+00 2.934166578790428748e+00 1.209156036509770971e+01 1.034127052121820789e+01 3.725970406478444463e+00 1.287578282689389830e+01 9.082201635617105140e+00 1.254935365397268576e+01 8.566678416034893218e+00 5.194096584860422361e+00 1.294941626676869717e+01 7.808710679865924931e+00 6.281355122916230549e+00 6.799773590866760309e-02 3.892611630018580460e+00 4.107821582266992344e+00 5.130605934932200185e+00 1.180493489058385492e+01 1.238175810575303970e+01 1.111364969622059817e+01 9.057549696468607081e+00 4.583549484351663317e+00 2.110717758917671549e+00 6.950624947535805731e+00 2.973223199829837515e+00 3.286160249187735527e+00 3.466228799299141627e+00 9.708926212686302959e-01 6.230968956634264977e+00 6.453294294327538871e+00 6.616808341911539770e+00 6.208486428712703287e+00 2.522437892054310016e-01 1.679550523412867813e+00 3.548975409062034458e+00 1.159177453716342221e+01 4.207284106447465533e+00 5.695875339747997756e+00 4.136667333619831410e+00 3.355983270363652515e+00 3.525010274044620306e+00 3.934714369011810819e-01 4.550114318462957108e+00 7.486219551109945414e+00 6.994943675193420418e+00 2.391889131473389288e-02 8.973697167510445993e+00 3.207464575100304582e+00 6.331821636896130201e+00 5.220542026691450843e+00 8.246213365312623722e+00 5.511314399376425754e+00 4.251095982599879086e+00 1.638122456102760083e+00 2.566844387156064666e+00 6.743466195639070682e-01 5.309926288020445639e+00 4.974379931476694772e+00 8.318120225450103433e+00 1.628056211192242975e+00 8.710053848869824478e+00 8.975069007926224529e+00 4.769675015316050981e+00 4.423796366690254445e+00 6.998430023315867388e+00 1.037247370803777358e+01 3.920747812339336336e-01 2.697831713055360292e-01 4.748709182349000635e+00 1.029922933846165733e+01 7.519847410918190533e+00 1.121609147637312809e+01 6.943160076374700118e+00 1.471159911544619669e+00 7.555206053184883253e+00 1.572433139605265318e+00 1.201953063551176903e+01 6.695692409415219259e+00 2.110515345125124398e+00 8.785247298562717688e+00 6.108467685469070041e+00 1.191977810596613274e+01 8.228894143731979582e-01 3.758476805931123987e+00 4.841641047645082629e+00 9.375773045133708905e+00 9.556402506809208219e+00 1.201894309617002854e+01 3.260502260414776643e+00 8.059635313614391672e-01 5.000612181672340562e+00 1.553013156652863769e+00 3.672501438958812869e-01 2.409132280030139572e+00 8.805869208179959884e+00 2.030179197396989377e+00 8.922304014210801881e+00 5.846996408989107330e+00 2.289343591252681609e+00 9.756247267825680636e-01 2.831141499023170915e+00 2.157866578240483779e+00 8.841549364074392514e+00 2.795061732236638896e-01 1.164129853073858456e+01 8.098714891857040854e+00 5.154868990683113772e+00 1.183725694598358658e+01 1.160424049407374980e+01 8.763325544582940552e+00 7.687339743810145620e+00 7.440064964797070246e+00 1.069898418941946261e+01 1.249607273313969369e+00 1.253954627891078033e+01 1.212253534498480789e+01 1.918815024817741355e+00 1.036931858183836930e+01 1.136699562548917442e+01 3.032282160842546759e+00 1.132008526347415689e+01 1.028834005067421487e+01 1.092533272828333679e+01 3.290506773624511716e+00 1.157375117489113059e+01 9.211087056999790690e+00 1.115329387162870134e+01 9.371485355757947389e+00 4.167217026441835337e+00 8.784140325408378303e+00 9.684564660566234551e+00 1.023083993737725805e+01 2.409698820632754312e+00 7.404062447254629031e-01 1.219285677504398535e+01 7.489963489757712978e+00 2.316031146540568741e+00 9.927394695608926511e+00 9.362458352635792735e+00 1.098962410456294503e+00 7.797405259089458696e+00 5.003076645222362728e+00 1.076399445696472945e+01 2.632968449571849501e+00 7.554643707362107996e+00 8.407306822787775857e+00 7.359258191033481111e+00 1.014471197326775354e+01 5.144470319594193874e+00 1.035287543371343055e+01 2.604256466835590089e+00 7.508906073461857344e-01 2.410122579627648420e+00 6.523225489204899752e+00 8.983285915978788339e+00 3.665418635762628607e+00 1.161896729152622676e+01 2.779305594529186241e+00 8.459981213536821087e+00 1.077939188898319678e+01 6.652750010379920198e+00 4.191099432296436333e+00 1.319682028669926765e+01 2.430589276896128581e+00 6.148560692453454379e+00 8.445359465034774971e+00 7.285752906432152898e+00 8.883086808031126935e+00 9.459094275254953388e+00 1.109022735991208108e+01 1.329606669984390166e+01 4.957992026155002563e+00 1.042963898363754183e+01 1.192463109220996742e+01 8.010106359767050321e+00 8.893265616612911373e+00 1.302882134901690314e+01 8.939737026967076616e+00 3.378322345103622393e+00 7.272842460120559238e+00
1.558144776994369707e+00 4.500515619339243045e+00 8.626312463664794095e+00 5.736490434812180794e+00 1.824504956129444366e+01 6.148742569408228498e+00 1.578114556657268430e+01 1.334120673661355028e+01 1.884228486455811691e+01 5.191779295741919320e+00 9.568034645427474061e+00 2.049121007477070933e+01 2.182091854738231973e+00 1.124934417076182847e+01 2.008433613665087236e+01 3.236822952749896509e-01 6.098202762629700402e+00 1.013947791945191579e+00 1.253659382483595097e+00 6.262000404242279217e+00 6.842281256184727489e+00 1.856698873999800625e+01 4.812627830688944286e+00 1.998784656630166623e+01 2.079876785967699870e+00 1.075273128062319472e+01 2.850343526766685898e+00 8.772073408218260537e-01 1.102481765407825343e+01 7.104537020612228027e+00 3.576795752899831982e+00 1.651978006467286519e+01 1.138702354397183214e+01 1.418828676803127387e+01 7.214900669521417953e+00 1.392920641096079848e+01 4.052627295584402489e+00 1.336984514281181546e+01 9.130148512068732014e-01 4.047676772456737737e+00 1.647879180610534178e+01 6.651405593366424895e+00 7.685017948905215057e+00 1.759391095906851632e+01 9.210873811563454083e+00 1.379361384778523103e+01 1.411150347786530013e+01 2.108195365229885709e+01 2.908287398785606825e+00 4.662595355644308270e+00 1.544615518628862150e+00 1.953641738232481373e+01 5.027766049037162510e+00 6.678714599128688256e+00 1.987260302196223805e+01 4.086873884945425139e+00 1.665200040145847549e+00 2.618252259590574393e+00 9.536533107583066382e+00 1.266131527952562941e+01 1.838179609112687629e+01 1.503882880079824957e+00 2.081641205762573321e+01 3.706064421376825013e+00 9.717667531115544932e+00 9.427047635435252815e+00 5.635493033030487098e+00 1.379933331166098398e+01 1.174028529313063451e+01 1.496765449752392563e+01 3.990254432393848028e+00 1.399382640734397398e+01 1.089759641516964805e+00 8.837904717819682787e+00 1.977871076440239406e+01 3.124048081538727040e+00 1.280719202759220821e+01 1.281370747844022162e+01 4.676781394786048374e+00 8.069573894631394850e+00 1.124212471104584488e+01 3.394152112036913138e+00 1.010654348987158002e+01 6.236144619938898792e+00 2.063996223477835912e+01 1.083960016257361580e+01 7.992373662994312067e-01 3.039561453779543232e+00 1.225528559850327959e+01 8.071517815540058649e+00 1.866273021442842506e+01 2.567836592359612258e+00 1.052433377831540184e+01 3.359777667325319683e+00 1.227177499493322976e+01 1.814362233753915632e+01 1.281352201018908055e+01 1.497173243338406934e+01 2.240665569394112655e+00 1.328543688133584588e+01 1.798154094606870146e+01 4.049330115002652164e+00 1.901898646244116264e+01 1.337427504076756257e+01 1.481806452465981394e+01 1.254936125958814053e+01 3.271517498917928091e+00 1.647829816149597093e+01 1.773653423317418376e+00 8.390711140271445601e+00 1.654527867102564276e+00 1.798353756465727216e+01 5.848805472738303202e+00 9.852093598826824561e+00 1.818826128452752400e+01 1.222852855328029520e+01 1.150879346358614796e+01 1.735630900041581626e+01 4.893816946820567892e+00 1.541349460672073413e+01 1.264607869858010325e+01 4.084914494738634438e+00 1.360797865942486773e+01 2.000550444502254877e+01 5.359824023659825798e+00 1.115811634637311478e+01 3.413878883083614202e+00 1.397102352067607889e+01 1.013552769390951447e+01 1.262614866563889038e+01 4.786598597438175950e+00 1.987701807298343581e+01 1.244431127378637214e+01 1.146569077817872540e+00 1.915395066242496469e+01 3.058840250532105731e+00 1.182369004163888881e+01 4.469431857764204707e+00 1.480289325006093115e+01 6.729402360740598388e-01 1.484841091344993913e+01 1.563260424947016070e+01 1.936615795578786603e+01 1.635913606630398931e+01 2.013488762353800254e+01 7.136679732541919563e+00 8.967397323964078737e+00 4.081960652083607144e+00 9.262388181598639747e+00 2.034190772127284497e+00 1.367979734130113556e+01 1.371034139954202402e+01 1.671904505446184075e+01 1.403197678931076275e+01 1.737872533688713972e+01 1.550370732067256085e+01 1.847900496521654290e+01 1.258482312786235724e+01 1.899608346738419584e+01 2.025452698069943835e+01 3.942489324736541789e+00 4.216042002273636236e+00 1.227418233027479211e+01 1.228400633097092332e+01 1.504339383883141146e+01 1.617119619280072484e+01 2.866844867076528303e+00 1.658015856825557321e+01 1.387657766515336633e+01 1.009905404673020790e+01 1.451311594247583159e+01 1.580755361744012788e+01 1.145332879848448471e+01 1.244090516567789884e+01 2.088575434746097415e+00 8.891449972475601982e+00 8.252694887721983008e+00 1.463758490916849375e+01 1.274250037334135399e+01 1.464727865207095014e+01 5.148534626358724609e+00 1.114924582251029506e+01 1.272725554086835587e+01 1.698299278957269465e+01 1.578286106107552911e+01 1.532474087861417189e+01 1.239946428964354475e+01 1.402178499470249839e+01 1.346445306001908371e+01 3.733005222173275239e+00 1.996428028164815061e+01 5.198871350273609693e+00
2.977787839639740142e+00 1.784258112929979490e+01 2.383994408870919735e+00 2.851961896855543799e+00 3.223620004981813114e-01 1.170706351415223878e+01 1.378797878938593691e+01 1.811903854758199373e+01 1.297549475252623097e+01 5.938935311210252976e+00 1.151941612684916727e+01 1.320316354541548165e+01 6.057420677733690084e+00 1.570591094247516395e+01 1.503077872460444020e+01 3.863736366557508628e+00 5.331682494452403276e+00 6.396481093430040232e+00 1.257315539783783542e+01 1.609094875889979459e+00 1.178682013956349017e+01 3.554892396816958566e+00 8.143498216085726327e+00 4.156055167289943064e+00 2.532727600668790213e+00 7.462097437338804262e+00 1.515667139269707420e+00 2.763369240161109630e+00 5.101994394356572649e+00 1.049790178247300254e+01 2.088472759295085623e+01 1.459308492964711412e+01 6.047477271939569299e+00 2.100420725194924287e+01 8.647994920745075476e+00 1.228008496087036150e+01 5.550651234393366718e-01 1.215983471113672643e+01 2.948771025350476749e-01 1.594614740373818673e+00 1.876451803815777453e+01 6.862337979651107034e+00 9.546668660269057582e-01 1.676705229775614470e+01 2.889812187863828541e+00 1.219134770373070609e+01 1.518862583225907592e+01 1.504430676941827194e+01 6.909949548944627207e-01 2.776071177502774212e+00 3.421371507736731266e-01 2.535193181843180987e+00 2.711451834955766471e-01 9.046156140501599552e+00 2.431201942492730694e+00 1.427440774631523412e+00 6.099485769666110002e+00 8.104067057964998710e+00 1.112295159913144715e+01 1.056544659493317617e+01 4.452711347937460928e+00 5.294346072301886252e+00 7.444328396516057822e-01 5.138227257713489315e+00 8.811735538501736187e+00 6.229145919179909896e+00 9.578823723503312237e+00 1.003653532520948488e+01 4.798304083323390756e+00 1.192126338846535027e+01 3.434677440866403142e+00 1.990773726320190562e+01 2.692838023733076458e+00 1.417834079173508499e+01 8.416851062940998718e-01 5.261430682068300335e+00 6.460170399856914436e+00 9.381533539633087670e+00 5.824152166832277544e+00 9.776207452040340584e+00 1.000886601845216006e+01 2.762253276434328275e-01 1.816204209804353553e+01 1.149374013955498341e+01 1.959553029293339410e+00 1.354887932895254643e+01 1.855717996583873486e+01 5.838094872277580727e+00 1.512044743943635794e+01 1.795361168804476648e+01 4.105984698115540787e+00 1.042457658018927802e+01 1.599624728028137177e+01 2.103198164634381584e+01 1.425919927924261366e+01 2.117623170341854433e+01 1.063829801435873890e+01 1.834809523669568065e+01 2.559094836403927875e+00 1.347981049600887360e+01 1.836755841981052129e+01 4.159618538202658478e+00 1.174426478964644716e+01 1.849724268641169189e+01 1.931394379287482010e+01 1.090748135921581152e+01 2.519989939072013740e+00 1.369963393901866588e+01 4.509820380569991016e+00 7.023467388631461361e+00 1.861383257358499321e+01 5.455034899990843122e+00 7.509605973287239777e+00 3.208721351712241265e+00 1.117077893902943764e+01 1.140580605704387729e+01 9.568555581144510214e+00 1.468050606517358325e+01 5.699803482310578318e+00 2.020106811263783797e+01 1.365849062314756601e+01 4.031686621250474722e+00 1.657391045303945987e+01 8.787128925080411435e+00 1.174750933294679989e+01 1.320862334045026643e+01 8.361072027789909100e+00 1.071328964775375603e+01 6.981401582973696840e+00 9.489743487687109180e+00 8.050761308788276338e+00 2.090969252989960836e+01 1.149411141900875499e+01 6.743298013750690600e+00 2.112332280191768419e+01 4.556310611687890422e+00 1.726372579215577474e+01 1.206357213711108578e+01 1.059336749960530710e+01 2.004639233085670824e+01 1.390824166641944082e+01 1.482710892550149673e+01 1.610646458423429550e+01 1.353377955290594414e+01 3.045139554217992206e+00 2.115089567243478186e+01 2.475438269396843083e+00 1.573388286162722771e+01 4.640532713343395343e+00 1.745853984416970306e+01 1.575478678433712787e+01 2.011730984886270335e+01 9.551080420802279036e+00 1.711470352654626481e+01 1.782115203022249617e+01 1.149631520971182930e+01 9.929763537971778575e+00 1.147843236033073211e+01 2.014892252334227862e+01 2.035882254569530403e+01 3.261863191595693934e+00 9.067083201040787799e+00 1.643305042179173014e+01 5.569825945219901264e+00 9.509245966697347896e+00 8.647600419018699469e+00 3.445108944390312011e+00 2.047876015543820571e+01 2.056005221346825707e+01 1.069216665924007081e+01 2.020882238088310956e+01 1.877728548929353281e+01 7.644835114269625365e+00 1.087065747758025935e+01 5.013907094744037840e-01 6.341624293823111991e+00 1.145917992733736135e+01 1.507833080019708483e+01 1.358711765342259881e+01 1.411575233312969857e+01 2.116201271631587844e+01 1.212417821716989508e+01 1.776187421232331687e+01 1.782514591204656895e+01 1.215831907723907079e+01 1.541503469484235644e+01 1.466655745924363430e+01 2.012169838402487443e+01 1.211440981644432924e+01 8.351650240878138121e+00 2.498508848994367870e+00 1.358392087587957775e+01
6.379728809308460313e+00 1.277813641240402198e+01 1.356047327551797110e+01 4.138909057396169544e+00 2.007410551563150847e+00 3.679335279271128911e+00 2.419316423914478875e+00 1.039240110223828850e+01 1.240997551151838607e+01 6.628489770495760602e+00 1.074145926046690791e+00 1.483665090321977509e+01 1.438579540374824184e+01 6.061268438580807327e+00 1.232768681913132980e+01 8.933100967045056962e+00 1.405574792856029909e+01 1.370223809248404123e+01 2.600769358264963804e-01 5.042098261897927536e+00 4.311083204927299128e+00 7.435766549718024976e+00 5.358174013444466866e+00 1.502312761245246975e+01 1.366111728115947521e+01 3.650457856569745196e+00 3.973352077080377631e-01 1.554223249319355959e+00 7.467643235905953247e+00 1.492832837496941956e+00 1.388405244893312762e+01 8.960831738056633355e+00 1.077664236413498067e+01 7.639693136118552275e+00 6.310120085753424313e+00 6.473992861845689006e+00 9.506751277332940120e+00 6.390212492882626272e+00 2.253315098993191157e+00 3.057396413046538086e+00 5.712087283560205897e+00 5.692644727985401332e+00 3.247466985743486578e+00 1.476736281641373338e+01 1.264410130750281880e+01 1.110877330550136755e+01 6.599597847315167520e+00 8.350608437689292174e+00 9.034329282804813843e+00 1.110813093607669799e+01 1.586032116712930318e+00 1.122671922131346811e+01 1.420974984244597827e+01 1.891200008904650343e+00 9.693944221044487719e+00 4.063513772380835221e+00 1.280498511488054270e+00 6.878337459042912272e+00 1.024416633066429227e+01 1.337687287209657683e+01 6.924250999140878493e-01 5.975471273110660952e+00 6.652304063664543854e+00 8.574271424540736319e+00 1.102419015975468497e+01 8.664537878102953172e+00 1.485201973883464888e+01 2.960174390446130399e+00 4.663327735795616213e+00 4.067535000450845040e+00 1.153417123895989249e+01 1.015273415046338457e+01 4.654294108957477971e-01 9.399427058903004450e+00 8.365233408085149591e+00 6.136062345878697144e+00 1.454618374876659814e+01 8.842735695593315626e-01 1.300331037831855419e+01 1.158794478433379105e+01 8.441450266042069828e+00 1.533638637383615277e-01 3.790022939026606252e+00 2.021072624090953784e+00 3.146229460502202091e+00 6.801448548287257978e+00 1.179667500244090306e+01 1.910059328112550414e+00 2.762531665953968041e+00 5.111610785522933575e+00 7.734956647939307928e+00 1.482991140897178362e+01 6.013197362025084480e+00 1.371229848750512126e+01 8.312735186134649013e+00 1.362697160512268191e+01 4.826917479223511442e+00 1.256085796685411538e+01 1.523781831392039976e+01 5.002177736756627802e+00 1.429531103476668186e+01 9.831278461239364219e+00 6.774939064371452879e+00 1.197191749251275361e+01 6.981047291954249445e+00 1.317225070998069114e+01 1.034291673488316476e+01 1.325497779734216053e+01 3.189037461165353804e+00 4.609347082653557415e+00 2.760996182398220089e+00 3.101841652430068930e+00 8.856751490527900117e+00 9.114640163547347740e+00 4.883350295575045408e+00 8.964961116831723587e+00 1.214663186101027215e+01 6.049697447874321732e+00 8.780733622713455588e+00 7.793172343618626208e+00 8.504742445150652586e+00 1.372764054624492225e+01 1.858376045740778082e+00 4.279884861313386857e+00 1.435115160247567578e+00 9.878552240598953205e+00 1.239256185548409306e+01 1.346806004645702082e+01 1.300732446262575692e+01 1.631131341355303688e+00 1.568746435488497681e+00 2.206779900879422662e+00 1.437842740233677574e+01 9.679564145918506668e+00 3.047643808369998597e-01 3.458992334996680906e+00 6.480023950532676658e+00 7.835924592403676670e+00 9.630724596013180872e+00 1.139304398224840043e+01 1.171429254030461564e+01 1.603661879354207676e+00 1.368619843360005106e+01 1.046487213116463089e+01 5.700528313965437910e+00 7.957278909347591522e+00 3.542324969420760805e+00 6.211758547130260766e+00 1.022987438510106628e+01 9.571671949051477890e-01 6.127756440693802098e+00 1.408451175696385782e+01 3.461521842813389593e+00 3.762113162714061376e-01 1.703681717785141103e+00 6.320686411237707247e+00 1.489287425757554395e+01 6.643158885735280350e+00 3.867335441245188243e-01 1.201885974420371461e+01 6.754078690954317565e+00 1.322859102129624631e+01 1.210874360935040706e+01 9.798848174264552791e-01 1.408965242560079822e+01 1.071524075799336373e+01 8.486767043585302872e+00 1.527296349582575274e+01 1.038521103381500943e+01 1.441845388394239258e+01 9.411984622759673513e+00 4.003713995360601574e-01 7.291532073587480234e+00 8.812087985281307212e+00 2.600970021305979915e-02 1.172592745986335849e+01 8.580357342587491942e+00 6.645714763741559672e+00 1.523092603355755337e+01 1.188009713816107471e+01 6.399779870615818211e+00 1.077580064843107088e+00 5.033840782911015665e+00 4.930014632910252104e+00 4.152420468386586627e+00 7.576895784288619318e+00 6.659550467028727994e+00 2.209119579307603498e+00 8.389484233102486144e+00 1.181179268415402817e+01 1.109216957662478009e+01 1.123237806676794293e+01
7.521736619586359751e+00 1.143921061980805653e+01 5.706729809649161433e-01 9.352928458360733055e-01 4.630741291197069565e+00 6.109195134969064078e+00 9.631456427236525286e+00 1.929677407796370536e+00 8.159406462779866587e+00 4.135964507643465460e+00 1.995379306764122784e+00 1.001625171661110159e+01 2.775096459921543079e+00 1.545080050951028183e-01 1.226176411446682835e+01 5.092062364780076678e+00 6.531995095679470786e+00 1.245470063094131596e+01 9.353043552789465309e+00 4.159070216476632886e+00 1.087492898285561793e+01 1.674170952424605785e+00 5.895472115016621828e+00 1.171026596253907748e+01 6.653678857760003673e+00 8.850745645826544106e+00 4.700251916411597897e+00 6.967964465476807590e+00 6.138130308695834536e+00 5.100238656800787140e+00 1.633930469478425684e-01 8.823815605322259614e+00 4.133391199730668042e+00 1.041351479354833565e+01 7.607286460913538235e-04 2.250914195524716721e+00 4.600371901397958818e-01 2.150045344327644159e+00 2.098907285935551759e+00 4.107975854428358886e+00 1.119326747454528714e+01 6.152604889911896358e+00 5.845260888393126741e+00 7.147962530630109335e+00 6.668477478799518465e+00 9.099369165790205827e+00 1.102995122668325756e+01 1.101004206448854106e+01 4.611990197254194901e-01 3.161183866938502285e-01 3.781069963503294495e+00 7.871247556022540337e-01 6.283931157050357541e+00 3.433664541527807756e+00 5.676961669178204772e+00 5.976404000795601412e+00 2.905410317182090640e+00 1.204110226135675532e+01 1.171112066413054187e+01 9.804074261141636271e+00 1.096068630408502997e+00 5.510535863353883679e-01 9.542853245928986539e+00 2.387041563359189933e+00 3.546926996437249180e+00 4.915853903899673583e+00 4.297206193838183919e-01 5.706788409791376804e-01 1.177945581619035842e+01 1.267450005562134585e+01 7.165380331553385496e+00 5.303256422213252774e-01 1.105455871563485104e+01 8.275972495595151912e+00 1.028347289792302988e+01 7.898970180245478367e+00 1.143779572657872023e+01 3.670400583199689759e+00 1.224776359645607648e+01 3.376870144151634889e+00 8.493729340955542995e+00 4.148299254707668027e-01 2.194637830992456351e+00 6.569303337812568699e+00 4.107221375393953267e+00 1.137556346330184631e+01 9.018584434115325621e+00 2.612820121056857126e+00 6.619937696021302997e+00 1.244583736251715589e+00 1.068806503602852587e+01 6.531347442192096509e+00 5.762022411438829650e+00 6.207643352708909212e+00 1.060319679814455185e+01 1.039378058667456095e+01 1.753775229626627130e+00 9.733437920850434466e+00 9.144862669334099081e+00 1.182413279741162171e+01 2.754536032786015554e+00 1.267144596574397042e+01 6.062920646136559455e+00 1.227201377153769535e+00 4.211994120089006977e+00 9.266536445411123424e+00 1.013379300984374609e+01 6.554911854784237768e+00 1.242299706030823847e+00 3.569936004063330337e+00 1.016471950884065834e+01 6.473426432349405957e+00 1.872149185601106325e+00 2.325332095849840464e+00 4.344378639219652172e+00 1.228245804845448852e+01 4.028775524685995535e+00 3.313912246581015353e+00 1.059111911607975109e+01 1.114522732313461617e+01 9.152402207071753892e+00 1.604794034905939748e+00 1.544691320321514016e+00 3.528736279292002731e+00 8.628318879070151937e+00 5.220633386053827429e+00 9.209719417093182869e+00 7.096835610270483485e+00 1.975479517285191777e+00 1.665775934129150482e+00 7.444394312267923475e+00 8.039106020824702270e+00 4.401167937108162675e+00 6.478348757493969323e+00 8.670831218668972440e+00 3.014451098592238587e+00 6.172856486447070523e+00 5.299857399722954554e+00 1.216192567296198135e+01 6.065132326350730629e+00 9.010849871847190329e+00 5.094340888136438927e+00 9.104557252791444455e+00 1.887329323646652623e+00 1.191208202392014215e+01 1.452083151488917090e-01 7.483588092555418569e+00 3.840837096791803518e+00 3.744044716368033043e+00 8.138910151629680456e+00 5.007270220800092098e+00 1.132113628964458130e+01 3.317626461611066779e-01 9.086802218789744146e+00 6.116660675959219695e+00 7.875535661921774455e+00 6.182222208744009961e+00 2.366501857137128351e+00 8.530147794955066587e+00 3.774970709934685864e+00 4.569929493048568325e+00 2.756679574641364816e+00 5.184092009990489913e+00 3.471566004891238233e+00 2.901566366374259132e-01 1.154938355346653900e+01 1.079566734927029970e+01 2.789590407095654534e+00 2.489461514719094826e+00 8.891302824217902412e+00 2.079293990707174355e+00 8.255414626572475711e+00 2.162399634877210541e+00 4.325782128770083723e+00 2.803447939725654425e+00 2.309421042939690416e+00 9.673571223947550202e-01 7.409362304075879813e+00 4.879943039936956994e-01 1.068519987092489210e+01 4.759906383543800246e+00 1.267310901277206092e+01 1.094410635957127731e+01 8.701938253267577750e+00 1.193480734985713987e+01 9.002606772141492186e+00 2.265689819735101196e+00 1.164313339347342868e+01 2.426938501273061544e+00 6.939167527452831052e+00 7.686281747852301116e+00 9.461970318599506768e+00
6.793502869623958773e+00 7.591407569707112613e-01 3.288082445469451720e+00 1.578644124170910379e+00 5.839714433444755493e+00 5.296398171140685562e+00 7.435388168860388447e+00 1.177541830724620375e+00 6.796701926535970273e+00 2.901432035383412766e-01 2.659226099147820932e+00 8.332299934592267476e+00 5.554253402884137270e-01 1.008870286847434627e+01 4.404835701358864736e-02 1.123915314636578877e+01 9.480300173891821336e-01 1.102407493774449243e+01 5.816151221724124909e+00 1.055982253908912760e+00 4.896220955499730465e-01 2.833891348445716218e+00 3.330868809190173252e+00 3.966045360497933103e+00 7.252233977456308267e+00 8.197940833903844648e+00 6.330992404155527886e+00 7.060281394597151206e+00 1.150096347686496756e+01 5.694062073805032043e+00 1.078345299203878938e+01 8.595276114040748539e+00 9.283261938980890804e+00 9.049492433353881538e+00 2.117835757528396368e+00 3.995184192749578145e+00 1.194335457931508770e+01 4.259315715566276417e+00 5.837575484186360519e+00 7.545323748258197405e+00 8.884662100542399799e+00 9.435439037614697710e+00 2.141550973002112279e+00 3.797555716994626795e+00 9.914688725372611700e+00 8.699043248996014555e+00 5.386613170673564710e+00 1.442411513524342936e+00 1.066846076238547170e+01 1.099056270246232314e+00 8.350011071558816056e+00 3.989649111677420645e+00 5.860312745358745801e+00 3.481868219368661421e+00 5.710206477562838501e+00 9.992328820645418830e+00 2.103480313522760881e+00 8.133419578416679840e+00 9.261515519609917035e+00 3.631796548041129613e-01 2.669375956379577364e+00 1.161991274330486590e+01 5.436637208757978179e+00 4.746615051430273624e+00 3.294427838621226901e+00 4.769644949801195577e-01 8.455455661028603132e+00 1.329081171961592922e+00 1.213019116807689635e+01 1.093680511245912612e+01 5.874158204124833027e+00 1.093965943116326223e+01 9.905890232257464234e+00 7.253526216405001392e+00 1.681437056443452871e+00 7.401868387505345925e-01 6.906849840475928204e+00 1.877459247519392971e+00 4.933869782890228706e+00 3.260415834803438884e+00 5.172370826254558906e+00 9.436297402308756688e+00 4.909253508311354430e+00 9.483318761252611750e+00 4.930038227791558647e+00 6.583090188880194038e-01 5.770693026583860075e+00 6.414484996354281598e-01 1.169406852976341860e+01 2.996378984132439971e+00 9.179972551592612717e+00 1.051371449214020615e+01 9.623815909221860920e+00 5.211451831486919595e+00 9.181470636415030029e+00 7.804001797908415305e+00 7.806099745443538573e+00 1.135561132834681430e+01 1.179899219065832483e+01 1.021602434913467050e+01 1.204776009905143397e+01 1.252603740852171521e+00 8.006981886256614445e+00 4.441326851822127608e+00 4.143640794395840210e+00 1.280629418183059753e+00 1.767166525886325168e+00 6.433807215809178581e-01 1.093461029841928855e+01 3.680158072708061390e+00 1.251419845361750127e+01 6.599221210261005943e+00 1.205950005619609300e+01 9.371234860858489668e+00 4.844989263964707860e+00 1.232660441008301788e+01 1.821763827973176486e+00 5.049502887494767833e+00 5.732301693899445105e+00 1.268913996244132747e+01 1.106331426317946942e+01 5.125430012478114250e+00 2.906455453221596930e+00 1.177545435327906453e+01 7.312626841367751318e+00 4.938129077181985932e-02 5.204423354134564139e-01 5.326180515536636406e+00 1.171472272809892168e+01 1.602288535061499930e+00 9.348988026137304175e+00 7.695512929247171563e+00 6.746935105248939912e+00 6.207719945871166267e+00 8.972414872789947538e+00 3.717644455494101940e+00 1.848604958762474437e+00 1.278064315285818653e+00 1.147694620916195563e+00 1.450844527427424424e+00 1.109280462396034750e+01 8.157392510555624199e+00 1.165556732608575352e+01 2.037351698134637346e+00 3.328360275951408820e+00 1.875903873671253441e+00 8.843485501869144727e+00 2.945768214883071501e+00 1.424429794451639975e+00 6.278081650263993119e+00 7.657184862705451955e+00 6.687614989675016552e+00 1.179065856487423680e+01 1.194146977240203533e+01 3.684768419091915437e+00 1.010530843173272686e+01 8.995095290742378680e+00 2.861262404046873264e+00 9.524064632434633637e+00 7.945492773094416705e+00 8.617963302960388816e+00 3.635444610671399790e+00 3.799665108380605894e+00 5.122412120482377595e+00 7.301412267541073753e+00 3.323278060645061593e+00 1.249272577410121166e+01 2.095554493848931013e-02 1.053196715471077738e+01 1.005190449563370514e+01 1.160454117454256995e+01 1.065264081739729463e+01 9.202470402735734467e+00 3.246524480597579920e+00 4.111478227380255923e+00 9.802379047964972614e+00 1.214341193352107418e+01 1.024568922739335264e+01 1.211116848346597274e+00 5.763949913575754813e+00 5.098343465257367590e+00 9.997248152158016765e+00 9.864407160303773736e+00 1.142165531019437275e+01 1.204183542629339421e+01 4.303695182254948293e+00 9.473782701668925554e+00 2.052200141486624663e+00 1.219914585938819851e+00 6.838570490372772426e+00 3.566303118132557959e+00 9.196826979927365642e+00