-3.977488430299999891e+03
-3.932403492200000073e+03
-3.912012248000000000e+03
-3.956725151399999959e+03
-3.985948209799999859e+03
-3.983892223299999841e+03
-3.980911289799999849e+03
-3.970845519299999978e+03
-3.964134549500000048e+03
-3.926375403000000006e+03
-3.984665562700000009e+03
-3.985332391500000085e+03
-3.984421571400000175e+03
-3.994098976000000221e+03
-3.904420589700000164e+03
-3.968799113600000055e+03
-3.962145511499999884e+03
-3.979236223500000051e+03
-3.946230722799999967e+03
-3.964893972700000177e+03
-3.944662094100000104e+03
-3.970617717900000116e+03
-3.941955449999999928e+03
-3.986101625499999955e+03
-3.954914957899999990e+03
-3.952992500599999858e+03
-3.959220197000000098e+03
-3.959925529300000107e+03
-3.974107025700000122e+03
-3.987866512000000057e+03
-3.961742977200000041e+03
-3.908383547699999781e+03
-3.979146704000000227e+03
-3.924303558000000066e+03
-3.908350053600000138e+03
-3.928620099400000072e+03
-3.963982019600000058e+03
-3.916611548200000016e+03
-3.977471514299999853e+03
-3.966139855700000226e+03
-3.971809907500000008e+03
-3.919170719000000190e+03
-3.972512222299999848e+03
-3.989222015700000156e+03
-3.968626319599999988e+03
-3.964480390700000044e+03
-3.955316959700000098e+03
-3.970094533200000114e+03
-3.982056726400000116e+03
-3.977479885700000068e+03
-3.920734784799999943e+03
-3.977889806700000008e+03
-3.982756877299999815e+03
-3.982142862600000171e+03
-3.950920036500000151e+03
-3.977406148800000210e+03
-3.935806293699999969e+03
-3.966615118799999891e+03
-3.934359834200000023e+03
-3.955528684200000043e+03
-3.919876537099999950e+03
-3.974800606700000117e+03
-3.973084455799999887e+03
-3.959205452499999865e+03
-3.918597292599999946e+03
-3.914562893700000132e+03
-3.923708555600000182e+03
-3.994068653599999834e+03
-3.943311035900000206e+03
-3.963318390200000067e+03
-3.982973731200000202e+03
-3.953281743999999890e+03
-3.965962078600000041e+03
-3.925153589699999884e+03
-3.991870603500000016e+03
-3.984144467699999950e+03
-3.982663530400000127e+03
-3.915909207900000183e+03
-3.981771064500000193e+03
-3.990521377900000061e+03
-3.913476619999999912e+03
-3.957204312700000173e+03
-3.970718134000000191e+03
-3.996193729699999949e+03
-3.945041962700000113e+03
-3.976871049899999889e+03
-3.969744129700000030e+03
-3.926838466100000005e+03
-3.979721388200000092e+03
-3.941975819100000081e+03
-3.940225353400000131e+03
-3.949070915400000104e+03
-3.919157838600000105e+03
-3.938306590199999846e+03
-3.990808535199999824e+03
-3.973522774900000059e+03
-3.985639386700000159e+03
-3.988184496200000012e+03
-3.971495369599999776e+03
-3.939571617000000060e+03
-3.978990367299999889e+03
-3.962434281400000145e+03
-3.961290013899999849e+03
-3.980032422700000097e+03
-3.968606948699999975e+03
-3.973015842400000111e+03
-3.938469272499999988e+03
-3.950069012599999951e+03
-3.918361334600000191e+03
-3.942042609499999799e+03
-3.942342561699999806e+03
-3.939724296299999878e+03
-3.973013429499999802e+03
-3.956292641500000173e+03
-3.971028375700000197e+03
-3.968007623399999829e+03
-3.983310325699999794e+03
-3.963973484399999961e+03
-3.973738856899999973e+03
-3.976644778200000019e+03
-3.986445905399999901e+03
-3.970520050999999967e+03
-3.942513413399999990e+03
-3.964929796200000055e+03
-3.984358081200000015e+03
-3.986884807999999794e+03
-3.983036202700000104e+03
-3.915971795299999940e+03
-3.918203190100000029e+03
-3.971160026399999879e+03
-3.942682122900000195e+03
-3.972570136599999842e+03
-3.989675107200000184e+03
-3.879182777200000146e+03
-3.975525188499999786e+03
-3.983896807900000113e+03
-3.964786907400000018e+03
-3.980586441899999954e+03
-3.966600149100000181e+03
-3.985979398399999809e+03
-3.983011660900000152e+03
-3.976244644400000197e+03
-3.901280718399999841e+03
-3.956412403199999972e+03
-3.978795033700000204e+03
-3.950652720900000077e+03
-3.992276762299999973e+03
-3.967430449800000133e+03
-3.941543767300000127e+03
-3.963143595500000174e+03
-3.964153137899999820e+03
-3.981456052900000032e+03
-3.966926719500000218e+03
-3.919679222700000082e+03
