-1.092620639999999921e-02 -4.159316317000000263e-01 -3.735073624999999953e-01 -1.355584488999999948e+00 -8.298573850999999557e-01 -7.187498749999999825e-01 -8.216875260000000569e-02 7.597471906999999636e-01 -5.191752392999999799e-01 5.221604364999999914e-01 4.047066420000000053e-01 2.149459816599999851e+00 -8.759876730000000500e-02 -3.058573733599999844e+00 2.459710004899999802e+00 -3.131959376200000200e+00 1.010865717900000016e+00 -2.668125668200000078e+00 -7.941708384000000231e-01 -5.645431538499999569e+00 2.822073250099999875e+00 -1.942715980999999981e-01 -4.102352415000000141e-01 1.412886187999999876e-01 -4.169917222000000256e-01 -2.136448364000000100e-01 -2.803419630000000135e-02 8.163700769999999995e-02 -1.165431162800000031e+00 1.043970183199999902e+00 1.201415532499999994e+00 1.130101650300000093e+00 -2.421728791400000080e+00 -8.500676453000000077e-01 4.169839096999999883e-01 -5.827054101999999958e-01 1.187650490500000044e+00 1.609565363000000082e-01 6.246765587999999481e-01 -2.596523619999999838e-02 9.468500030000000234e-02 -2.089262285000000052e-01 -3.710162402000000137e-01 9.690041893999999933e-01 2.902607487000000153e-01 1.207513619999999940e-02 -7.479277959999999781e-02 1.576423912999999899e-01 8.943966250000000284e-02 3.889568568999999809e-01 8.983408029999999378e-02 -1.153133615300000026e+00 1.602998929999999850e-02 2.919469874999999770e-01 -1.284755999999999954e-01 1.740085848000000046e-01 -5.814370919999999748e-02 8.615058084000000171e-01 8.412053419999999948e-02 -3.247949400000000111e-03 8.283296699999999346e-02 -2.329182127999999963e-01 9.204937089999999655e-02 1.159314513999999963e-01 -6.114393719999999810e-02 3.396052883999999827e-01 3.112435233799999867e+00 9.981058012000000312e-01 4.227156268000000217e-01 2.923775328000000062e-01 -7.968938501000000230e-01 -6.120470679999999719e-01 5.546691776000000074e-01 -3.216675440000000274e-01 5.731196485999999757e-01 4.386230776999999748e-01 8.031585547999999797e-01 -9.157766586000000153e-01 1.497213055400000048e+00 -2.208787277699999940e+00 8.739727231999999679e-01 -3.586922102999999806e-01 8.778598909000000505e-01 3.261557820000000191e-02 -2.670694542000000005e-01 9.571070289999999980e-02 -3.790285945999999906e-01 8.801413140999999607e-01 3.124555579000000138e-01 1.122575648400000015e+00 2.595908145999999972e-01 1.131290558000000029e-01 -1.444470391000000076e-01 -3.902026317699999858e+00 1.248512754400000091e+00 -2.228841500300000167e+00 2.894130717999999769e-01 9.020709490000000663e-02 -1.016996218000000063e+00 3.611794774999999902e+00 -1.094081087399999985e+00 2.826408213000000114e+00 4.983703851999999879e-01 -4.732105354999999736e-01 1.482087492999999978e-01 1.690140830000000094e-01 8.317889259999999840e-02 2.457927916000000046e-01 -2.058857980999999893e-01 2.994330729999999940e-02 -2.533646511000000046e-01 -1.470030226100000004e+00 -7.447128140000000562e-02 -1.077001433399999986e+00 -2.677802499999999974e-01 -7.485887660000000166e-01 5.371504356999999841e-01 -1.804325267999999927e-01 3.171304685299999981e+00 -5.368484077999999826e-01 -2.682686154000000212e-01 -2.047328395999999939e-01 -1.913065154999999962e-01 -1.330111328599999920e+00 5.226384441000000436e-01 1.670182592900000040e+00 7.753102790000000466e-01 3.503768670000000085e-02 -9.094531420000000199e-02 -1.401420308799999903e+00 9.014544156999999558e-01 -6.714525557999999616e-01 -1.533214648399999991e+00 -1.058081929799999932e+00 2.239073530799999823e+00 -2.433533810000000075e-01 1.841257907999999943e-01 -5.921009130000000342e-02 3.933497740999999936e-01 -7.848856716000000011e-01 1.226138893999999979e+00 -3.160393196999999876e-01 2.497831617999999865e-01 9.894372300000000772e-03 2.098588805999999918e-01 1.621922285999999880e-01 3.052283064999999906e-01 -8.988328145999999741e-01 -2.239464783000000014e-01 -1.999625993200000007e+00 1.870565449999999963e+00 3.342314843400000068e+00 -3.167191851700000171e+00 -4.117273127000000144e-01 9.218737464999999798e-01 -1.339623809999999915e-02 -2.577170432499999997e+00 3.210161385999999784e+00 -4.300342133100000019e+00 5.182028422000000134e-01 -8.633724868000000052e-01 -9.634663975999999685e-01 1.889565500000000009e-01 -4.146132618999999742e-01 1.242626763999999939e-01 -3.549667323999999846e-01 -2.777446717000000009e-01 -1.312872063999999950e-01 4.530200677999999814e-01 7.349704311000000434e-01 -1.017329579199999889e+00 1.763000023999999888e-01 4.939672288999999994e-01 1.865251830000000041e-02 -8.308801350000000197e-02 3.529386265000000189e-01 2.994221670000000168e-01 2.940345038299999825e+00 -3.365635732499999921e+00 4.724207332499999801e+00 1.391054601000000002e+00 9.015798344000000020e-01 -9.377217769000000258e-01 3.689035104000000231e-01 1.248873922999999969e-01 7.216578345999999922e-01 -8.431110610000000505e-02 -1.496943909599999900e+00 -1.096855556199999970e+00 -2.874071257999999962e-01 9.439594665999999634e-01 7.630302705999999491e-01
-4.907729862999999915e-01 -1.773368020999999961e-01 6.113317886000000367e-01 4.706537438000000240e-01 6.203679286000000070e-01 1.514904935999999980e-01 -5.490080125999999838e-01 2.344008294000000103e-01 -1.282353072000000094e-01 -7.371690712999999784e-01 3.287839671000000186e-01 2.621893586999999859e-01 -1.542968405000000043e-01 -2.472700244000000103e-01 1.398847245500000058e+00 2.885865599999999920e-01 1.648946548000000123e-01 4.803245829999999716e-02 -4.816906066000000153e-01 9.553360285999999979e-01 -1.852326091000000008e-01 2.374826992000000081e-01 -4.906995954000000215e-01 4.615625100999999897e-01 -2.321766578100000089e+00 -1.594211084299999914e+00 -3.119709091799999889e+00 -5.246237050000000096e-02 -1.157444400000000014e-03 -1.985286813999999900e-01 2.963577794999999737e-01 -7.188285650000000304e-01 -2.385854809999999881e-01 6.324551900000000178e-03 -2.846672765000000105e-01 1.394283040000000029e-01 -4.333445847999999878e-01 -8.300836525000000465e-01 -6.911555199999999677e-02 -4.804184626999999930e-01 -5.032437557000000172e-01 3.369207291999999909e-01 -5.170372905000000241e-01 -5.376544450000000225e-02 -3.669535051000000214e-01 3.873878597000000035e-01 -7.839956230000000303e-02 -4.084422205000000083e-01 -5.324340672999999802e-01 4.554627108000000035e-01 1.564121850000000161e-02 4.456374399999999958e-01 2.157970268000000136e-01 3.891913156999999845e-01 -2.164357685999999947e-01 -4.156425229999999998e-02 -8.404705787999999789e-01 3.349213064000000073e-01 3.506106607000000208e-01 -3.809902180999999999e-01 1.448770782999999895e-01 8.256873349000000140e-01 5.614271710000000304e-02 3.003946384499999844e+00 2.199455861800000189e+00 2.115743874600000130e+00 -2.680333379000000016e-01 5.767760140000000035e-02 -2.099683789999999897e-02 1.853859039500000083e+00 -1.220763987000000050e-01 7.489231462000000006e-01 -6.937766500000000502e-02 -2.130828473999999972e-01 6.180196675000000361e-01 -3.407738081999999724e-01 7.806842399999999738e-02 -2.795262971999999957e-01 -8.493874449999999632e-02 3.554776774000000250e-01 3.005598212000000213e-01 1.151318040000000043e-01 -4.223491819999999897e-01 5.772808831000000307e-01 8.680723947999999801e-01 -2.299506714000000007e-01 -2.046532849000000098e-01 1.562036366000000009e-01 -1.490225119999999959e-01 2.352967498999999907e-01 1.385699341999999945e-01 8.749859373999999690e-01 -1.031998999999999937e-02 4.841734791999999787e-01 1.835313191000000066e-01 -4.219079345999999786e-01 1.390087571999999994e-01 4.372599591999999924e-01 1.431224905000000047e-01 -7.914859520000000481e-02 -5.181789479999999726e-01 -3.280605368000000244e-01 -6.555112148999999722e-01 8.480804409999999349e-02 -1.423225409999999969e-01 6.472945674000000205e-01 -1.412634125999999990e-01 8.065178439999999560e-02 -1.040713129100000023e+00 -5.283342527000000066e-01 -6.343733004999999592e-01 -8.103435212999999804e-01 -2.606506133000000003e-01 -6.500931629999999739e-01 1.444304879999999958e-01 1.392646636000000049e-01 4.249242321999999739e-01 -1.049134756999999946e-01 2.371107430000000127e-01 -2.600378943000000165e-01 -1.597864806700000084e+00 2.174235194999999954e-01 1.958967537000000092e-01 8.735186911000000221e-01 -5.929598704999999859e-01 2.534563537999999783e-01 3.401080489999999679e-02 -1.570231650000000062e-02 -2.835875850000000101e-02 7.554140870000000674e-02 -6.056622404999999487e-01 -5.308458230000000500e-01 2.205995416000000042e-01 7.238636810999999893e-01 -5.059276524000000386e-01 1.750089900000000087e+00 2.362476282199999833e+00 2.656749268300000022e+00 1.469745369000000079e-01 4.375445873000000097e-01 5.825766963999999826e-01 -1.015773653999999943e-01 2.996549326999999874e-01 -2.383834864999999914e-01 7.447849952999999745e-01 -2.024495531000000126e-01 -4.754456060999999734e-01 9.268976177000000094e-01 3.326768771999999985e-01 -2.933104140000000193e-01 2.445459918000000010e-01 8.214306209999999719e-01 1.109454916200000030e+00 3.267430165999999914e-01 -7.022421325000000047e-01 2.641828100000000179e-03 -5.059070529999999677e-02 9.215246499999999591e-03 -1.030439191000000060e-01 1.731932841999999917e-01 2.794332961000000060e-01 4.000481961999999836e-01 -1.356349100799999929e+00 -1.847531466199999972e+00 1.297641414799999948e+00 -7.056396399000000041e-01 -4.571687978000000263e-01 -1.311785960999999889e-01 2.660750269000000112e-01 -4.497161289999999922e-02 -3.642075348000000101e-01 -4.519623076000000017e-01 3.046021750000000097e-02 8.216329344999999673e-01 -3.603806669899999982e+00 -2.319609284199999788e+00 -2.498739921599999914e+00 2.172953416099999924e+00 -1.262714688000000085e-01 -1.354708518200000045e+00 7.473707120000000481e-02 -3.827604854000000167e-01 -4.293003939000000213e-01 -5.246946314999999528e-01 -3.797686318999999866e-01 9.979603909999999745e-02 3.407669508999999763e-01 1.435309976499999918e+00 -9.375477217000000030e-01 2.787236009999999875e-01 -4.652364524000000001e-01 2.443581808999999994e-01
1.585505690500000009e+00 1.263611280399999925e+00 -3.867573939999999766e-01 -1.122755613000000069e-01 -2.025284036999999981e-01 -3.558182160000000066e-02 -1.515969923599999936e+00 1.516861257999999879e-01 2.418020392999999935e-01 1.640130508000000042e-01 -1.981938759000000105e-01 -6.997368389999999994e-02 -2.143695850000000014e-01 -9.989637860000000202e-02 -5.051110510000000192e-02 1.274824786000000043e-01 4.637264066999999823e-01 1.716603710000000060e-01 1.968239883000000023e-01 -5.860565986000000338e-01 2.954019533000000197e-01 -2.983702502099999876e+00 7.052209780999999511e-01 1.504839115200000021e+00 4.464507482000000249e-01 -1.713066933000000069e-01 1.307246743000000100e-01 1.746495719999999890e-02 1.032676812999999971e-01 -2.913732373999999847e-01 2.139003620999999911e-01 3.580054138000000052e-01 -3.053475187999999951e-01 -3.978200481999999982e-01 2.000834905999999969e-01 -4.568635880000000010e-02 2.399320053199999858e+00 -1.114202901100000087e+00 1.406803812799999998e+00 9.692440979999999984e-02 3.495135317999999991e-01 4.715741960000000010e-02 -1.653656008500000052e+00 -1.362680232700000049e+00 4.477151698999999874e-01 6.023965817999999972e-01 8.185417709999999458e-02 -3.595187073000000177e-01 3.552518054000000092e-01 -1.342408699999999948e-02 1.976896468999999879e-01 -2.872214583000000099e-01 -5.074896699999999899e-02 -6.810626117000000423e-01 2.713593809999999967e-02 -2.333403859000000025e-01 2.963109004000000213e-01 2.635138254000000124e-01 -1.639054900000000078e-02 -1.756047354999999976e-01 -9.428274600000000061e-02 5.528121984999999627e-01 7.294061299999999790e-03 3.229000749000000003e-01 -2.511609176999999860e-01 2.326362939999999935e-01 4.415628459999999811e-02 -1.663267988000000086e-01 -3.206098081000000044e-01 -8.105651480000000686e-02 7.008286777000000134e-01 -1.057983249999999986e-01 -5.762689913999999858e-01 2.097552668000000065e-01 -1.686154254999999991e-01 -4.704651633999999971e-01 3.475493705000000100e-01 -3.262734659000000037e-01 5.459519790000000317e-02 -3.423575821000000019e-01 -1.209362536000000016e-01 2.287671927999999910e-01 2.395829070999999921e-01 -1.583099001000000117e-01 2.914761498999999811e-01 1.459282705999999930e-01 6.938045694000000152e-01 -2.226635576999999866e-01 -1.160951308000000015e-01 -3.788043294999999810e-01 1.768407573000000121e-01 1.823261706000000038e-01 -1.648815415999999867e-01 -4.672211568999999898e-01 2.631541033299999999e+00 -5.433418376999999966e-01 6.006083102000000506e-01 1.566347129999999879e-02 1.006381613999999952e-01 -5.515552645000000309e-01 5.924332499999999772e-03 -3.066931452000000169e-01 -5.548159920000000217e-02 -1.018478779999999924e-02 1.047723913999999978e-01 6.830878137000000461e-01 -3.389269550999999825e-01 1.419284668000000138e-01 -1.787192370000000030e-02 2.651620669999999944e-02 3.907791181999999974e-01 2.706393201000000026e+00 -1.227590016199999967e+00 -1.591042816200000098e+00 -8.259668572999999681e-01 -9.666718409999999762e-02 3.888080189999999770e-02 -6.486188024000000274e-01 -3.192662350000000093e-01 -4.613739326999999890e-01 -2.133542710900000028e+00 -6.240576049999999597e-01 -4.740882404000000272e-01 -2.297535787999999968e-01 4.857634959999999891e-02 -2.122331990999999918e-01 -4.358850222000000274e-01 -4.677261419999999975e-02 9.783153358999999716e-01 -1.193490212499999981e+00 1.151626664799999977e+00 -2.019461701999999970e-01 1.535338681700000096e+00 -1.371613781199999993e+00 -2.256938871999999985e-01 -7.112139929999999888e-02 -2.317985490000000134e-02 3.421847614999999898e-01 4.493125829999999876e-01 4.118446491000000154e-01 -2.162906386000000014e-01 8.136655963000000158e-01 -1.298709542399999917e+00 3.114798086000000188e-01 -2.480843823999999975e-01 -3.265160333000000081e-01 2.176851972999999940e-01 1.537928124600000057e+00 6.681997628000000411e-01 1.221823580699999967e+00 2.620573090000000160e-02 -2.942962888999999804e-01 6.121064094999999483e-01 -7.269533165999999547e-01 3.534083006000000027e-01 1.410473794999999864e-01 -9.840614579999999723e-02 -6.161187133000000093e-01 1.289055346000000102e-01 3.336175695999999968e-01 2.331599577000000034e-01 1.954431886000000118e-01 5.864736379999999638e-01 2.693847639999999988e-01 2.647224059000000129e-01 5.521277682999999881e-01 3.336248095000000080e-01 -4.484730860000000346e-02 -9.326724822999999942e-01 -1.052410152400000021e+00 -1.541285991799999922e+00 3.320000850000000003e-01 -5.147375701999999942e-01 1.037195389999999960e-02 -1.272830241000000029e-01 -4.269769011999999808e-01 -4.789628322000000216e-01 1.291712227000000046e-01 -1.493656419999999929e-01 3.538288010999999789e-01 -4.707741388000000193e-01 -2.962513045999999872e-01 2.862082663000000138e-01 -2.250343284000000110e-01 2.453606547999999943e-01 -8.066093720000000467e-02 4.703507081000000145e-01 1.670696703700000008e+00 -9.540423898000000014e-01 -3.017321736999999948e-01 -1.629289237999999862e-01 -3.681203999999999726e-02
1.519121143300000032e+00 1.031771971499999996e+00 -1.908177633800000050e+00 -5.008603460000000257e-02 9.576963380000000359e-02 -2.723544339999999994e-02 -2.019847119000000024e-01 3.904969870000000315e-02 -1.684265704000000030e-01 6.085380945999999680e-01 1.611949784999999968e+00 -1.564717512100000096e+00 4.778119800999999778e-01 1.674065800000000027e-03 -2.302686516999999933e-01 3.111545947000000090e-01 -5.727558729999999987e-02 1.313542524999999905e-01 1.571984239600000111e+00 3.198265109399999861e+00 -5.547417905000000538e-01 2.346826418999999886e-01 2.191807869999999950e-02 3.141458638999999886e-01 -1.333058233600000086e+00 4.856875239999999816e-02 -1.166301151200000108e+00 1.320451801099999933e+00 1.744509294999999904e-01 8.914743720000000149e-01 1.114196538000000042e-01 7.159973479999999502e-02 -1.025230790999999975e-01 -4.388846589000000020e-01 2.334437534000000092e-01 1.110059523000000020e-01 -2.446543803000000017e-01 9.395793585999999697e-01 -1.000006712000000020e-01 1.771548485999999978e-01 -1.359562012600000092e+00 -2.896905337300000216e+00 5.874578429000000268e-01 -2.660370199000000047e-01 -1.983802671999999878e-01 -4.656585099999999838e-02 2.256128018999999929e-01 7.640466529999999368e-02 2.554624000000000131e-03 -4.178910034000000162e-01 -4.416047763000000015e-01 -3.060183948999999903e-01 1.061569820000000074e-02 -5.236603800000000364e-01 1.909163232999999960e-01 -6.991445555999999950e-01 -5.084204344999999625e-01 4.525215651000000228e-01 -2.019079662000000108e-01 8.912940079999999432e-02 -1.690382739000000079e-01 -4.712990200000000303e-03 3.237949298000000198e-01 2.757260236999999892e-01 -8.121021820000000335e-02 6.614578609000000275e-01 -3.336297640200000192e+00 -1.421530507900000018e+00 -2.112246629399999964e+00 7.125995620000000197e-02 -8.936600510000000663e-02 -4.647274120000000064e-02 3.319065849000000235e-01 2.822695810699999974e+00 -6.806223122000000236e-01 -3.253400016999999922e-01 -1.411739227800000052e+00 1.056870900600000107e+00 -2.220414016099999888e+00 -2.557874779000000043e-01 5.481599071999999628e-01 1.126913117099999972e+00 3.773789154000000146e-01 7.498019965000000120e-01 -2.503746446999999820e-01 4.536717116999999799e-01 -4.093120049999999788e-01 3.956110108599999897e+00 1.869313920500000004e+00 -1.638846065599999902e+00 1.330505727100000035e+00 -2.164201673200000009e+00 1.234809333699999900e+00 2.647881016199999937e+00 -3.501394166599999913e+00 5.857476769999999666e-01 -1.949632303200000027e+00 -8.579682299999999984e-01 1.528031669300000006e+00 8.925413560000000635e-02 -9.326057417999999988e-01 -5.361580700000000144e-03 -3.727297337000000099e-01 3.204152291999999846e-01 -1.373327454000000114e-01 -1.086749683000000077e+00 4.520230275500000339e+00 -5.391589776999999861e-01 -4.778718466999999914e-01 6.111578720000000048e-02 4.991403704999999857e-01 1.938633392000000122e-01 4.353886999999999861e-03 3.771443356999999996e-01 -1.881550177000000101e-01 5.549983239999999735e-02 -3.984404381000000162e-01 -2.251427575000000125e-01 1.548130330000000061e-02 2.652120380000000041e-02 1.164528069999999985e-02 2.606643117999999926e-01 -2.820067650000000065e-02 7.300739600000000218e-02 4.062788609999999911e-01 2.186507890000000121e-02 -3.952109118000000088e-01 -2.366081314000000047e-01 -3.347215230000000208e-02 4.094656119000000261e-01 2.241856190000000026e-01 5.425747996999999989e-01 2.984305483999999953e-01 2.909525262000000057e-01 7.876433190999999612e-01 2.797687557999999908e-01 9.270024212999999902e-01 2.144732729499999824e+00 -3.364972406300000163e+00 5.978801588000000056e-01 7.520450340000000011e-01 3.433861504999999870e-01 -4.174438710999999746e-01 -7.111159329999999779e-02 1.040652053000000049e-01 -9.375453479999999729e-02 -5.964256589999999969e-02 8.526941579999999798e-02 7.680003389999999486e-02 -8.323147499999999227e-03 3.602074285999999903e-01 8.855974290000000193e-02 3.944860901000000197e-01 -1.138621973400000043e+00 -3.030981059800000210e+00 3.807777263499999787e+00 -1.566039718100000089e+00 -7.487435934999999709e-01 -1.039595208699999995e+00 -1.945162873399999937e+00 -1.316305145599999893e+00 -5.504098360000000273e-02 -1.396728577999999943e-01 -9.752731289999999609e-02 3.983054635000000121e-01 1.083503740999999937e-01 1.138728659999999927e-02 4.619654499999999685e-03 -1.977432400999999951e-01 -6.172157031999999655e-01 2.279161523000000078e-01 6.309784870000000045e-02 -3.960576717899999988e+00 1.590574981200000071e+00 1.867192209299999961e+00 1.689429541099999987e+00 6.609861769000000553e-01 -2.261529623999999905e-01 -8.682982429999999696e-02 1.695355258000000032e-01 -2.063873077899999853e+00 2.072276773400000049e+00 -1.114780817800000046e+00 -1.892305526999999987e-01 1.930601403999999965e-01 -2.248053026000000065e-01 -1.195793312999999941e-01 -4.757727603999999944e-01 -2.467645726000000095e-01 2.976182502099999905e+00 -2.388104229000000134e-01 -1.467162745900000065e+00
9.884957291000000534e-01 2.657458111000000067e-01 1.126748531999999942e-01 -3.111586645100000048e+00 3.039922829600000043e+00 2.627580921199999864e+00 -7.615355249999999909e-02 -4.176924590000000159e-02 1.453461866999999907e-01 -1.717446718199999944e+00 1.486686113400000009e+00 2.414379959000000075e-01 -1.995065065999999943e-01 2.895736169999999984e-02 1.092491528400000078e+00 6.877385799999999327e-02 1.628333790000000003e-02 -1.284116183000000022e-01 2.133955389999999952e-01 -1.759683514000000004e-01 -2.933095090000000238e-01 4.790518569999999837e-02 -8.322231767000000113e-01 -1.336971012000000014e+00 -1.128436612999999950e-01 5.170710803000000411e-01 -3.455436431999999725e-01 2.769857040399999804e+00 -1.959350215099999959e+00 -2.523190493300000004e+00 -3.866286940000000089e-02 1.495106495000000091e-01 1.460102463000000073e-01 1.414439264699999921e+00 -1.191922956900000052e+00 9.753886770999999900e-01 -3.608239220000000053e-02 4.866256382999999963e-01 -4.671403880000000314e-02 -1.254720206000000116e-01 -1.032410504500000048e+00 1.677581258000000020e+00 -1.914430198700000085e+00 2.077188930300000180e+00 2.578855410300000095e+00 7.451346233000000208e-01 -1.635998920500000064e+00 2.992152057499999795e+00 -4.321177546000000147e-01 -3.878057818999999795e-01 9.645672011000000490e-01 1.742899621000000010e-01 -3.642543784999999756e-01 7.436337229999999410e-02 1.210957800100000092e+00 1.240963950899999890e+00 -4.643498475999999764e-01 -1.768904760400000109e+00 -1.931920105199999904e+00 6.043592547999999676e-01 2.519463356899999784e+00 1.479426398300000001e+00 -2.372528262399999921e+00 2.820080536899999935e+00 -2.320971912000000081e+00 -2.384558221699999869e+00 -1.745707975800000034e+00 2.154302432999999906e-01 1.828123843600000020e+00 -8.211423830999999840e-01 3.976615363000000070e-01 3.548104127000000219e-01 -1.156057067999999993e-01 2.963379797999999843e-01 1.453404571999999950e-01 -1.320346141000000029e-01 6.443290779999999440e-02 -7.817260950000000375e-02 -1.920100489800000032e+00 5.015712369999999476e-01 -2.904490079000000002e-01 8.962729901000000554e-01 -1.083478980800000047e+00 -1.499502986300000007e+00 -3.955096947999999779e-01 -4.641674939999999860e-02 -3.202004587699999849e+00 6.355553646999999584e-01 -1.086245604399999953e+00 2.854282745000000232e-01 4.008296980000000120e-01 1.671783088999999889e-01 -3.542901164999999741e-01 9.127310964999999499e-01 -8.743579136000000362e-01 2.351366552999999970e-01 -1.928581410999999912e-01 8.717455298999999824e-01 2.731639180000000056e-01 -5.773490288000000525e-01 4.258844355999999998e-01 -3.873896490000000026e-01 -1.716599044899999926e+00 -1.958914945999999935e+00 6.734967420400000293e+00 -1.773500618999999945e-01 5.874924249999999987e-02 3.112559799999999825e-03 1.553155659500000008e+00 7.458621980000000595e-02 1.396036274200000094e+00 1.230613245200000039e+00 2.217450392699999995e+00 -7.169840233699999565e+00 -7.803675433000000217e-01 -2.572517561000000064e-01 -1.464396391199999981e+00 -9.142307494000000423e-01 -1.816486394300000029e+00 1.101030263800000020e+00 -2.812022198499999792e+00 3.312227951100000123e+00 -1.623568319799999937e+00 2.442029822000000017e-01 8.334958315999999590e-01 -2.077937584000000004e-01 -3.994801400000000217e-03 5.890831400000000329e-02 1.328875250000000063e-01 2.368500115000000128e-01 -7.498518420999999989e-01 -4.558690188000000254e-01 -6.697517912999999545e-01 -3.495001144000000060e-01 4.422191872999999829e-01 1.924262686000000055e-01 -6.488891356000000554e-01 1.692275135000000097e-01 4.883154999999999701e-04 -1.960808175000000042e-01 -2.026774027000000089e-01 6.069515525999999994e-01 -3.402203905000000250e-01 4.025704977999999823e-01 -6.128259912000000309e-01 -1.619903507000000076e-01 -1.618786829999999954e-01 -5.374447762999999822e-01 7.677569199999999539e-01 -5.150402125999999914e-01 -3.722480420000000012e-01 -4.764076373999999725e-01 9.461850793999999620e-01 -2.727687735000000058e-01 1.001419015999999995e-01 5.741356743000000096e-01 1.091737193599999989e+00 -4.854485900000000270e-02 -4.507072810000000151e-01 -1.786386245199999889e+00 -1.321250333100000063e+00 3.766801800000000016e-03 1.636901682999999941e-01 -6.183845889999999706e-02 -5.372901399999999855e-02 1.411969763599999927e+00 -2.139717953799999961e+00 7.358062546000000426e-01 -6.497524837000000497e-01 1.408747132300000038e+00 7.678370691000000470e-01 1.703411561600000068e+00 4.372660110000000100e-01 2.764537047000000247e-01 2.229609746000000003e-01 6.266351628999999868e-01 2.289088502999999941e-01 -5.174090977999999952e-01 8.266385483000000534e-01 8.546491548000000327e-01 2.343143828100000103e+00 3.738544536000000251e-01 4.772854981999999913e-01 3.892297275000000112e-01 7.610508524000000330e-01 -4.044953594199999891e+00 1.482237574999999974e-01 -2.720705608999999803e-01 -5.309252244000000065e-01 -1.005703401999999969e-01 1.779771334999999954e-01 -1.312711589999999984e-02
-4.680439438999999813e-01 6.227378342999999594e-01 5.276537331999999747e-01 1.408349828000000081e-01 -3.981244540000000026e-02 -3.124550188999999922e-01 3.497033880000000039e-01 6.394313686000000496e-01 4.653125261000000124e-01 1.215558952100000090e+00 -1.557402357600000009e+00 -2.235213373100000123e+00 1.636338897000000070e-01 9.574596559999999645e-02 3.629478058000000229e-01 -5.315125055999999626e-01 6.943380909999999351e-02 2.063540433000000118e-01 4.002755293699999939e+00 1.321269649500000032e+00 -2.968416614100000128e+00 -1.420656370699999949e+00 -1.906031673999999954e-01 -7.194117052999999817e-01 -6.976359079999999713e-02 -6.458876389999999856e-02 3.554927160000000141e-02 6.426250869999999837e-02 -7.290144440000000392e-01 -1.913415763999999908e-01 5.625923500999999716e-01 -8.713190257999999799e-01 -3.202164162999999730e-01 -8.266988396000000128e-01 2.967088558000000043e-01 -1.786927193099999922e+00 -1.600719449999999933e-01 -3.244451163000000027e-01 -7.311832729999999392e-02 -1.635882086799999913e+00 -1.986726723899999936e+00 -8.916594190000000364e-02 -3.655044886000000104e-01 1.005418233299999908e+00 6.774750161999999465e-01 -1.962958740299999949e+00 -3.088773839399999943e+00 -3.833789156999999892e-01 1.316378403000000030e-01 -3.451786109999999824e-02 1.039881223999999937e-01 9.799035109999999771e-02 -6.951109530000000591e-02 -2.280527965999999962e-01 7.833951355999999588e-01 -9.620874383999999946e-01 2.306817140000000030e-02 4.516351510000000263e-02 -1.128051602400000020e+00 6.054763937999999568e-01 -1.781860238000000096e-01 -3.950552225999999778e-01 -1.252672448000000105e-01 4.401484776100000218e+00 7.204665768699999973e+00 -3.739986478500000100e+00 -1.840521743300000068e+00 -1.378623555599999939e+00 -3.632046973900000086e+00 -2.975549976999999902e-01 1.547455118100000027e+00 4.005027883000000233e-01 6.668990867999999850e-01 2.885153441299999955e+00 5.638833254999999767e-01 5.454699668000000390e-01 -3.483449404000000249e-01 7.600456266999999766e-01 1.653533733299999975e+00 1.959849533999999949e-01 6.420638865000000139e-01 -7.087797217000000316e-01 4.920614616699999999e+00 -1.370101970499999933e+00 3.809449583800000205e+00 -1.658732332999999892e+00 -1.138641897000000069e+00 1.694485095699999944e+00 -3.299926593999999991e-01 -1.441932287900000054e+00 6.436385533999999797e-01 2.789077960899999820e+00 -9.444587454999999743e-01 5.154130540000000094e-02 -1.212316821499999975e+00 -3.257742357600000194e+00 -1.372149413000000040e-01 9.832221318999999626e-01 -2.704767372999999919e-01 3.328399252400000119e+00 4.118882066999999814e-01 -1.580656580599999916e+00 -5.205573874000000156e-01 6.503801976999999956e-01 -2.655042107000000207e-01 -5.466386221000000267e-01 3.317857639999999830e-01 2.547770577700000150e+00 -4.204779299999999997e-02 1.436968589999999997e-02 5.650847726000000071e-01 4.769650853999999884e-01 3.252621492000000170e-01 -4.099048341000000040e-01 -7.016636728999999795e-01 -2.774531953999999967e+00 3.982244681600000114e+00 4.766000589000000121e-01 8.301182579000000450e-01 -9.145183899999999311e-02 2.078002579999999877e-01 -3.533852787000000273e-01 2.926170000000000160e-02 3.881383876999999760e-01 1.215671451600000008e+00 -6.550796060000000365e-01 1.470545345499999934e+00 -3.585746157999999961e-01 7.184059050000000113e-01 3.240846549999999993e-01 1.298891281000000009e-01 -1.377296926999999893e-01 6.678978789999999444e-02 4.131269028999999815e-01 5.226458020000000065e-02 -5.954842782100000065e+00 -4.881114871800000365e+00 5.580795465199999583e+00 1.863049434000000060e-01 -3.672999355000000077e-01 -2.829436024100000058e+00 -2.943889626499999856e+00 -1.084942140799999954e+00 1.037469217700000002e+00 2.755465871000000178e-01 -5.323829131999999742e-01 -9.515194670000000354e-02 -3.883025898100000095e+00 1.994051756600000003e+00 6.400649269999999502e-01 1.978149989999999914e-02 5.076893109999999765e-02 -1.327900050999999970e-01 -1.026963492399999955e+00 1.732625104999999943e-01 9.668690340000000161e-01 1.258002649100000037e+00 -6.852763574799999979e+00 8.022772511000000328e-01 -3.377778622000000008e-01 1.725796169000000102e-01 -3.160953947999999847e-01 1.440932360000000134e-01 -1.675477264000000133e-01 2.116722527999999881e-01 -1.833227436100000052e+00 -7.959027672999999803e-01 -2.241793612299999960e+00 5.021438784999999738e-01 8.395275929999999887e-02 1.706203507499999938e+00 3.571516156999999803e-01 6.553425754999999686e-01 1.589741960999999926e-01 -3.352175513000000273e-01 1.253786138000000105e-01 1.087515225099999983e+00 9.278260725000000431e-01 -8.079187494999999775e-01 1.839977300799999993e+00 -3.260773549000000049e-01 1.095091240099999919e+00 2.566436221400000051e+00 -1.734473571399999914e+00 1.584931806000000054e-01 7.567922366999999539e-01 1.733828551400000029e+00 1.385487089199999966e+00 3.882940722299999869e+00 -2.378279183600000124e+00 5.524642163999999855e-01 -5.233941680000000485e-01