-1.415115624162869956e+01 -1.588377655151765062e-03 1.249471266911451650e+01 -1.588377655151765062e-03 -1.644968819179053554e+01 -1.469995736027854782e+01 1.249471266911451650e+01 -1.469995736027854782e+01 -3.037195367014907532e+01
-1.400689399960793224e+01 4.639332638697085898e+00 5.853133649626664159e+00 4.639332638697085898e+00 -4.088101646381473131e+01 1.204067964155274423e-01 5.853133649626664159e+00 1.204067964155274423e-01 -3.348522602874723475e+01
-2.737759531338843999e+01 -4.366761077305441496e+00 2.303437565786925934e+00 -4.366761077305441496e+00 -2.988965925542310131e+01 -2.299295635538623817e+00 2.303437565786925934e+00 -2.299295635538623817e+00 -4.434176606087486761e+01
-2.453416520907066101e+01 1.403234658458798745e-01 2.013207227675351429e+00 1.403234658458798745e-01 -1.211495524972232829e+01 -6.386958147474773639e+00 2.013207227675351429e+00 -6.386958147474773639e+00 -3.664979065244985179e+01
-3.068653702261909189e+01 -7.638062336671833208e+00 -8.203240957850763238e+00 -7.638062336671833208e+00 -2.114990076638047967e+01 -7.264928734280881706e+00 -8.203240957850763238e+00 -7.264928734280881706e+00 -1.375949911489511202e+01
-4.206749284300983049e+00 9.855353092341227139e+00 1.449364474065763762e-02 9.855353092341227139e+00 3.577097390075230088e+00 5.022131459765632577e+00 1.449364474065763762e-02 5.022131459765632577e+00 -1.342961564365395510e+01
1.122245821191644310e+01 3.608686610025840125e+00 -4.846822781209711550e+00 3.608686610025840125e+00 -1.511412232976709191e+01 -1.599418353384819014e+01 -4.846822781209711550e+00 -1.599418353384819014e+01 9.347266856536483814e+00
-2.980229013609790556e+01 -1.118205167500783759e+01 -5.035056132265215645e+00 -1.118205167500783759e+01 -1.405806535314784078e+01 6.136817775972965849e-01 -5.035056132265215645e+00 6.136817775972965849e-01 -2.305530097936373224e+01
-2.061598287328217083e+01 -4.474581284588265540e+00 -1.312137266990675677e+00 -4.474581284588265540e+00 -3.035426867308783727e+01 -7.014410957758099308e+00 -1.312137266990675677e+00 -7.014410957758099308e+00 -4.957031835046193180e+01
-3.737638668915051454e+01 6.541624540444518132e+00 1.004106943767781424e+01 6.541624540444518132e+00 -2.111022104836116497e+01 1.477826039865422914e+01 1.004106943767781424e+01 1.477826039865422914e+01 -2.909446091440759830e+01
-9.885613424115202719e+00 1.567764883988037816e+01 -5.160463759641718440e+00 1.567764883988037816e+01 -6.237706907570902182e+00 4.906515923380961652e+00 -5.160463759641718440e+00 4.906515923380961652e+00 -3.231788259390805251e+01
-3.430668541956732298e+01 1.205867970624414198e+01 -1.477563291578796800e+01 1.205867970624414198e+01 -1.376420984596032504e+01 -1.081019358876778824e+01 -1.477563291578796800e+01 -1.081019358876778824e+01 -1.343820134326249516e+01
-3.033757874919074027e+01 1.211800408356670911e+00 -2.150749651509657134e+00 1.211800408356670911e+00 -2.837567747192498757e+01 9.578031392485298667e+00 -2.150749651509657134e+00 9.578031392485298667e+00 -1.649458228507053903e+01
-4.367019247564359574e+01 5.725081841943755911e+00 -4.701076547903701552e+00 5.725081841943755911e+00 -6.204108564101086642e+01 4.548281405119981358e+00 -4.701076547903701552e+00 4.548281405119981358e+00 -4.143523850671079600e+01
-1.572427779321590968e+01 -1.262062922768812179e+01 3.534897509738798238e+00 -1.262062922768812179e+01 -4.041188533148034168e+01 -8.647753494288485498e+00 3.534897509738798238e+00 -8.647753494288485498e+00 -2.769549725283565422e+01
-1.248351429354179487e+01 7.295393556251961620e+00 4.476629961773729960e+00 7.295393556251961620e+00 -1.204772789220161044e+01 1.333632446295821516e+01 4.476629961773729960e+00 1.333632446295821516e+01 5.428748007534509590e+00
-4.125471616573392453e+01 -8.479138365198915395e+00 6.583534635513781097e-02 -8.479138365198915395e+00 -4.191180525671163792e+01 -1.097558922815964566e+00 6.583534635513781097e-02 -1.097558922815964566e+00 -4.990240903798630967e+01
-1.822115739988998584e+01 -1.083469298856274188e+00 -2.208758445938853843e+00 -1.083469298856274188e+00 2.258479931615363867e+01 -1.627454822920012312e+00 -2.208758445938853843e+00 -1.627454822920012312e+00 -2.294059721007318586e+01
-9.329949117614360077e-01 5.794160615303127315e+00 1.998314270581657937e+01 5.794160615303127315e+00 -2.148006151078799064e+01 -5.798422599387794030e+00 1.998314270581657937e+01 -5.798422599387794030e+00 -2.027701313358060364e+00
-5.430459666411325159e+00 1.270175019328178001e+00 2.102407472941595579e+00 1.270175019328178001e+00 -4.709153790456964828e+01 6.454785493264880714e-01 2.102407472941595579e+00 6.454785493264880714e-01 -4.211614564390527704e+01
-9.545042753062890739e+00 3.799060221124966219e+00 7.355164410072074777e-01 3.799060221124966219e+00 -4.547939440514532805e+01 -5.507072593830807605e+00 7.355164410072074777e-01 -5.507072593830807605e+00 -3.238095498362353197e+01
1.669740572111948396e+01 2.499597985369510056e+00 1.631323905075372593e+01 2.499597985369510056e+00 -1.690845726669668281e+01 2.072107957943709611e+00 1.631323905075372593e+01 2.072107957943709611e+00 1.335347656751178569e+01
-1.661000133641962151e+01 -2.231528997393214198e+00 -2.799505402904898688e+00 -2.231528997393214198e+00 -1.824729721476798616e+01 -9.939098308503597767e-01 -2.799505402904898688e+00 -9.939098308503597767e-01 -3.431410434810759114e+01
2.255703280136870603e+00 -7.704437540900469727e+00 9.409749742173321607e+00 -7.704437540900469727e+00 -3.667255585068514279e+01 -8.500560851921548533e+00 9.409749742173321607e+00 -8.500560851921548533e+00 -1.550128276292738327e+01
-3.600640243961534992e+01 -6.934379392163480205e+00 -4.106302096566821214e-01 -6.934379392163480205e+00 -4.870727023090344687e+01 8.199646157373114974e+00 -4.106302096566821214e-01 8.199646157373114974e+00 -5.226211584335725746e+01
-4.252924195957313458e+01 2.218885324229851186e+00 1.135659019309008810e+00 2.218885324229851186e+00 -3.629841567943115166e+01 2.553286935597194773e+00 1.135659019309008810e+00 2.553286935597194773e+00 -3.782668242973031880e+01
-2.162746264951647390e+01 -1.258639274674281516e+01 -9.107933458197798871e+00 -1.258639274674281516e+01 5.210187712792010650e+00 8.674445363409080123e-01 -9.107933458197798871e+00 8.674445363409080123e-01 -2.026789858369380681e+01
-1.820724901150743236e+01 1.044959432547981493e+01 -1.539360589526533873e+00 1.044959432547981493e+01 -1.966418931451462981e+01 5.439700031134065306e+00 -1.539360589526533873e+00 5.439700031134065306e+00 -3.787492012219214388e+01
-3.123821124806762484e+01 1.245987946392851953e+01 -4.334673777012150175e+00 1.245987946392851953e+01 -3.225704554940349311e+01 7.522089247220666408e+00 -4.334673777012150175e+00 7.522089247220666408e+00 3.155751111564048528e-01
-3.867022648924952222e+01 6.695806030336296288e+00 6.268201100280004212e+00 6.695806030336296288e+00 -1.752641995002059261e+01 -8.298975265068076368e+00 6.268201100280004212e+00 -8.298975265068076368e+00 -3.315588157078742171e+01
-3.671430490251232470e+01 4.461858853268880765e+00 -2.126892461074500140e+00 4.461858853268880765e+00 -2.599426476931702723e+01 7.547714497915835707e+00 -2.126892461074500140e+00 7.547714497915835707e+00 -2.162032995341787256e+01
-2.370828837014346746e+01 -7.728798053081229469e+00 3.418940877946488932e+00 -7.728798053081229469e+00 -3.006349416258551699e+01 -5.561410995392736645e+00 3.418940877946488932e+00 -5.561410995392736645e+00 -8.972581847763400731e+00
1.696352541350519516e+01 -1.150132282632202685e+00 -7.783279119161197190e-01 -1.150132282632202685e+00 -4.128586353978672463e+00 -2.224467438308345635e+01 -7.783279119161197190e-01 -2.224467438308345635e+01 -3.244220952302539018e+01
-2.319989756000302705e+01 1.582910279298294398e+01 -2.095465334411846126e+00 1.582910279298294398e+01 -1.566683306760742589e+01 -1.133505620050307350e+01 -2.095465334411846126e+00 -1.133505620050307350e+01 -2.534410382072785950e+01
-1.521825381039564817e+01 -8.663668344241596486e+00 8.231613779446723456e+00 -8.663668344241596486e+00 -1.243186772602661705e+01 -1.014659460718201522e+01 8.231613779446723456e+00 -1.014659460718201522e+01 -2.805937003206276614e+01
-3.679543857203795909e+01 1.552703054089780599e+00 6.707065119233265094e+00 1.552703054089780599e+00 -3.355676193675520125e+01 1.595883556664763059e-01 6.707065119233265094e+00 1.595883556664763059e-01 -3.406951872149079463e+01
-4.714953173500390449e+01 -6.265879523507561721e+00 4.457445250757846367e+00 -6.265879523507561721e+00 -4.025213562843048720e+01 1.526995616730304128e+01 4.457445250757846367e+00 1.526995616730304128e+01 -2.629891518892702962e+01
-3.497149541660249383e+01 3.535210026911561165e+00 -4.811670535304128471e+00 3.535210026911561165e+00 -2.026681370911934010e+01 7.325390151266462979e+00 -4.811670535304128471e+00 7.325390151266462979e+00 -2.242946536331405838e+01
-2.588878392438562059e+01 2.201186499486920134e+00 1.334272138948001896e+00 2.201186499486920134e+00 -3.449932260458029276e+01 3.977965189569432347e+00 1.334272138948001896e+00 3.977965189569432347e+00 -2.710034064290439204e+01
-2.512643231099958019e+00 2.600505654704508007e+00 7.222285816272941084e+00 2.600505654704508007e+00 -9.178183686936849384e+00 -1.271453294511531062e+01 7.222285816272941084e+00 -1.271453294511531062e+01 -1.023517220266522898e+01
1.682575633154854700e+00 3.815612146952419792e+00 8.290792198059637741e+00 3.815612146952419792e+00 -1.585466485925708469e+01 5.689708828347725955e+00 8.290792198059637741e+00 5.689708828347725955e+00 -2.776880127283309818e+01
-4.161569642366351474e+01 -5.278806522174987137e+00 4.422729102240046117e+00 -5.278806522174987137e+00 -1.142907836007954714e+01 3.610368516271880157e+00 4.422729102240046117e+00 3.610368516271880157e+00 -4.874412601219899699e+01
-2.434092602652461679e+01 -3.405963653265262625e+00 -7.317320158476269931e+00 -3.405963653265262625e+00 -1.803691021099073666e+01 1.054505851717097187e+01 -7.317320158476269931e+00 1.054505851717097187e+01 -2.046023832543292897e+01
-2.794072472283618325e+01 -2.555247571355128700e-01 6.138440531766099717e+00 -2.555247571355128700e-01 -2.387246257084720114e+01 2.840728257678328816e-01 6.138440531766099717e+00 2.840728257678328816e-01 -2.350185579118957335e+01
1.395430219775959912e+01 9.340554423224592284e+00 -5.921023422684863036e+00 9.340554423224592284e+00 2.094479940569721865e+00 6.318491626916685533e+00 -5.921023422684863036e+00 6.318491626916685533e+00 -1.926788194029850487e+01
-4.610316176704773028e+01 1.361823677966705581e+01 -5.693582471467408368e+00 1.361823677966705581e+01 -1.249232398153824697e+01 5.638964923775772853e+00 -5.693582471467408368e+00 5.638964923775772853e+00 -4.041175819448839945e+01
-3.608231614689322697e+01 4.946950264549021981e+00 2.160308346170497273e+00 4.946950264549021981e+00 -4.286709504470494636e+01 1.680575355000732074e+00 2.160308346170497273e+00 1.680575355000732074e+00 -4.553110114473711434e+01
-1.281587903460529532e+01 -7.248350288141689468e+00 1.960976861391328319e+00 -7.248350288141689468e+00 1.446768121384233385e+00 3.917647723762889278e+00 1.960976861391328319e+00 3.917647723762889278e+00 -1.884059537634480108e+01
-1.822951797904021731e+01 5.152957803712611140e-01 3.754413215737968934e-01 5.152957803712611140e-01 -4.897639309915606809e+00 5.824061028936412754e+00 3.754413215737968934e-01 5.824061028936412754e+00 -1.732765771308342551e+01
-4.580042391111722822e+01 -1.321480457117052154e+01 -3.921305649084651179e+00 -1.321480457117052154e+01 -2.092438823128199488e+01 8.997230990843380738e+00 -3.921305649084651179e+00 8.997230990843380738e+00 -2.786879026064293541e+01
-5.016162350919408652e+00 1.164432143618063797e+00 -1.689082633949605849e+01 1.164432143618063797e+00 -1.995716151379701131e+01 -8.483200570543823815e+00 -1.689082633949605849e+01 -8.483200570543823815e+00 -2.108948308659694248e+01
1.122153688611950706e+01 -1.387866536132592188e+01 -1.664424403377349648e+01 -1.387866536132592188e+01 3.179156213853508994e+00 -5.558434488600358492e+00 -1.664424403377349648e+01 -5.558434488600358492e+00 1.382817805912181264e+01
-3.279197240431225513e+00 -9.428229499699050109e+00 2.319601435382710353e+00 -9.428229499699050109e+00 -3.226713443554051963e+01 -3.530723055435852853e+00 2.319601435382710353e+00 -3.530723055435852853e+00 1.334548829374062606e-01
-2.257321673392916139e+01 8.771221293926457108e+00 4.295977057953022538e+00 8.771221293926457108e+00 -5.175769002500253180e+00 -2.823790883577537159e+01 4.295977057953022538e+00 -2.823790883577537159e+01 3.708404666448454456e+00
-1.219010794762619909e+01 -1.834604234585494353e+01 4.722690009708039760e+00 -1.834604234585494353e+01 -1.189259576427977727e+01 2.319863441920638536e+00 4.722690009708039760e+00 2.319863441920638536e+00 -3.430485230184768142e+01
-2.736070925815866417e+01 -6.270430966605545109e+00 -8.305301991972397602e+00 -6.270430966605545109e+00 -2.355170499430684572e+01 -9.010458287309170977e-01 -8.305301991972397602e+00 -9.010458287309170977e-01 -2.523725712367258822e+01
-3.225780516943083764e+00 -2.429408550346137474e+01 1.286599220329237525e+01 -2.429408550346137474e+01 -1.080910097598655994e+01 -9.893753092483395406e+00 1.286599220329237525e+01 -9.893753092483395406e+00 -2.820101662077115634e+01
-3.461673467309663721e+01 -5.684305476250821165e+00 4.774593695876985233e-01 -5.684305476250821165e+00 -2.887314519226275067e+01 -4.217377513988047610e+00 4.774593695876985233e-01 -4.217377513988047610e+00 -3.343385721960336099e+01
-1.084832452696971927e+01 -4.005902822211230507e+00 1.028945117308370882e+01 -4.005902822211230507e+00 1.944477963748314719e+00 1.018098052054617675e+00 1.028945117308370882e+01 1.018098052054617675e+00 -1.729186877328251271e+01
-2.370084752074397372e+01 7.187145704355270226e+00 2.699901396205162118e+00 7.187145704355270226e+00 -1.134032518742406559e+01 -1.109891132011661163e+01 2.699901396205162118e+00 -1.109891132011661163e+01 -1.136038594139849067e+01
-4.933494076937105888e+01 1.085443099923033294e+01 5.021539017036801944e+00 1.085443099923033294e+01 -2.819079169713995370e+01 5.826530473467334659e+00 5.021539017036801944e+00 5.826530473467334659e+00 -4.301196300402997963e+01
-1.161105255915095569e+01 -3.664352155534670974e+00 -1.003880886210491319e+01 -3.664352155534670974e+00 -1.671342180534130151e+01 -1.381169811916678647e+00 -1.003880886210491319e+01 -1.381169811916678647e+00 -2.372622016881488349e+01
-6.197625765310503354e+00 6.687114119933366574e+00 -9.331128970553190238e-02 6.687114119933366574e+00 -1.512389233320027948e+01 1.039845681278568001e+01 -9.331128970553190238e-02 1.039845681278568001e+01 -1.820172922256733372e+01
-3.001980045298626365e+01 2.818248133150325074e+00 2.660918946860311163e+00 2.818248133150325074e+00 -4.686495334876415342e+01 2.213650588878734560e+00 2.660918946860311163e+00 2.213650588878734560e+00 -5.403506413087335147e+01
-3.262654678108139450e+01 1.685805055871782754e+00 2.243385787511878782e+00 1.685805055871782754e+00 -4.349949734615506003e+01 2.237912398112817502e+00 2.243385787511878782e+00 2.237912398112817502e+00 -3.584597597980982897e+01
-4.696993746790341362e+01 -3.396487845503942893e+00 3.058972197370212420e+00 -3.396487845503942893e+00 -4.629314933726549697e+01 -3.245237420731458933e+00 3.058972197370212420e+00 -3.245237420731458933e+00 -4.331929050679275406e+01
-4.788965097029529261e+01 1.982771522986739865e-01 2.245431906860367643e+00 1.982771522986739865e-01 -3.407913938344972848e+01 -1.746207922600268025e+00 2.245431906860367643e+00 -1.746207922600268025e+00 -2.310860280305357506e+01
-4.912115177465761917e+01 -3.435476098194028438e+00 5.506496547974549793e-01 -3.435476098194028438e+00 -3.569700314137505615e+01 -2.663953713003436974e+00 5.506496547974549793e-01 -2.663953713003436974e+00 -3.575076935844295178e+01
-4.035833304524809506e+01 4.773200960769940160e+00 8.011069959499387494e+00 4.773200960769940160e+00 -2.390785698211609756e+01 -5.890813124021055280e+00 8.011069959499387494e+00 -5.890813124021055280e+00 -4.191728714689845958e+01
-3.763579708539504765e+01 -5.663382053724530962e+00 -1.198475554259059717e-01 -5.663382053724530962e+00 -5.163009706662838738e+01 4.291809670975436752e+00 -1.198475554259059717e-01 4.291809670975436752e+00 -4.941526754122119058e+01
-3.142840793628544205e+01 2.668452853375934186e+00 6.709414714123596468e+00 2.668452853375934186e+00 -4.530606228735533136e+01 1.306546864025686094e+00 6.709414714123596468e+00 1.306546864025686094e+00 -3.136996250620536486e+01
-3.709953565342037507e+01 -4.464627437064179638e+00 -5.602022715461396629e+00 -4.464627437064179638e+00 -3.710922634410548682e+01 6.388358398133012983e+00 -5.602022715461396629e+00 6.388358398133012983e+00 -4.170060203474582750e+01
-2.851619511224511783e+01 -1.118047229465790693e+01 -6.075421970363670710e+00 -1.118047229465790693e+01 -2.312298826920727279e+01 1.611997745712141716e+00 -6.075421970363670710e+00 1.611997745712141716e+00 -4.025654367457955374e+01
-3.434385343600538221e+01 6.390561829466755661e+00 5.115832332482384004e-01 6.390561829466755661e+00 -2.905258741954251178e+01 -3.327892070611214503e+00 5.115832332482384004e-01 -3.327892070611214503e+00 -2.901667165800565229e+01
-5.452674366325945954e+01 -1.279260843287879590e+00 -4.379438029347340056e+00 -1.279260843287879590e+00 -3.687430144456385506e+01 3.770729121035579112e+00 -4.379438029347340056e+00 3.770729121035579112e+00 -3.521257215609176683e+01
-1.624350772869352255e+01 1.512559132823482955e+01 -1.710513741329258153e+00 1.512559132823482955e+01 -1.178697002235919733e+01 1.089727581735639461e+01 -1.710513741329258153e+00 1.089727581735639461e+01 -1.758615386582843954e+01
-5.191394918122843194e+01 -1.082742676849445296e+01 7.042848399948860916e+00 -1.082742676849445296e+01 -5.408598623835688812e+01 -3.749834891673240911e+00 7.042848399948860916e+00 -3.749834891673240911e+00 -3.805921471390436750e+01
-2.416635140398972226e+01 -1.188776937951837809e+00 3.456456780962218200e-01 -1.188776937951837809e+00 -2.068907446035910169e+01 -2.019027816617124049e+00 3.456456780962218200e-01 -2.019027816617124049e+00 -4.007555524742829078e+01
-3.862581847211701103e+01 -3.813749409085221559e-02 2.934576013836114328e+00 -3.813749409085221559e-02 -3.473432012393067936e+01 1.438345290987916858e+00 2.934576013836114328e+00 1.438345290987916858e+00 -3.644222094448810623e+01
-3.967967679541484216e+01 2.271853581701892555e+00 -5.948272316120022829e+00 2.271853581701892555e+00 -3.890879172268210340e+01 3.664247784335027625e+00 -5.948272316120022829e+00 3.664247784335027625e+00 -2.020487663373533138e+01
-3.927075842921573923e+01 -2.551324035204445284e+00 -6.648117824351129634e+00 -2.551324035204445284e+00 -4.578637148642336285e+01 2.137189587731777696e+00 -6.648117824351129634e+00 2.137189587731777696e+00 -3.551336107359755800e+01
-3.860905319670455782e+01 -1.076806115376279038e+01 1.832557725450850272e+00 -1.076806115376279038e+01 -3.606746611806497071e+01 -1.125764838783138977e+01 1.832557725450850272e+00 -1.125764838783138977e+01 -1.488447952980706646e+01
-4.441029123871706474e+01 -1.514845146280332067e+00 -6.194965091167307092e-01 -1.514845146280332067e+00 -4.771997293333144796e+01 7.749205239525165823e+00 -6.194965091167307092e-01 7.749205239525165823e+00 -5.640510813976347038e+01
-5.990247089118969370e+01 -1.552769141449452661e+00 3.877273348082387550e+00 -1.552769141449452661e+00 -6.198146442317662519e+01 -1.409945261486186929e+00 3.877273348082387550e+00 -1.409945261486186929e+00 -6.083476265995787458e+01
-1.817302948128931561e+01 -9.187516171962366585e+00 6.380628894482573088e+00 -9.187516171962366585e+00 -3.677497291603733487e+01 -6.223281429567522061e+00 6.380628894482573088e+00 -6.223281429567522061e+00 -4.221016160559360486e+01
-3.687249480222364895e+01 -1.167058529934481470e+01 -1.185386789248638095e+01 -1.167058529934481470e+01 -3.949757022866440082e+01 1.224292359233006167e+00 -1.185386789248638095e+01 1.224292359233006167e+00 -3.985916428240342668e+01
-3.877964383968517836e+01 -1.467907780682586871e+00 3.993136727711618761e+00 -1.467907780682586871e+00 -3.018494731224586403e+01 -6.312171709547882870e+00 3.993136727711618761e+00 -6.312171709547882870e+00 -2.691099607178490416e+01
-2.955057108236929864e+01 -1.262638415168647654e+01 -5.950292444827367966e+00 -1.262638415168647654e+01 -3.463375910728704810e+01 3.255473475371600145e+00 -5.950292444827367966e+00 3.255473475371600145e+00 -3.261201144647417038e+01
-1.437029413415161372e+01 8.301514807379488659e+00 7.278182787092028150e+00 8.301514807379488659e+00 -3.828246469668874852e+01 -8.878291530097966344e+00 7.278182787092028150e+00 -8.878291530097966344e+00 -4.493541971227352860e+01
-3.475550746924804457e+01 -5.770144300198780662e+00 2.170204407869727459e-02 -5.770144300198780662e+00 -3.436609852739685778e+01 3.479178544801011075e+00 2.170204407869727459e-02 3.479178544801011075e+00 -3.419313762449434080e+01
-4.599362736750919822e+01 -4.476037033646506735e+00 -3.582405862610781089e+00 -4.476037033646506735e+00 -3.478415767288909421e+01 6.939010651006121577e+00 -3.582405862610781089e+00 6.939010651006121577e+00 -4.833936403007864158e+01
-3.831943228449952699e+01 -7.686084136991397919e+00 2.206874827887730373e+00 -7.686084136991397919e+00 -2.964064986850542027e+01 -7.151528231873342634e+00 2.206874827887730373e+00 -7.151528231873342634e+00 -3.370160564211025900e+01
-7.769825318218002508e+01 -9.734790539399377218e-01 -3.474667888864781506e+00 -9.734790539399377218e-01 -7.162589820914188010e+01 1.810964777429505457e+00 -3.474667888864781506e+00 1.810964777429505457e+00 -5.073410609664243509e+01
-3.940707135264254646e+01 6.939148845062604209e+00 8.490880967135417734e+00 6.939148845062604209e+00 -2.323037309533776806e+01 5.458327534459813002e+00 8.490880967135417734e+00 5.458327534459813002e+00 -3.194725009675776661e+01
-3.159978273477367150e+00 -7.468811285383676335e+00 4.604076560403317586e+00 -7.468811285383676335e+00 -4.522139378620168060e+01 3.122146051499319896e-01 4.604076560403317586e+00 3.122146051499319896e-01 -2.652336049407938035e+01
-5.330880097133244178e+00 -3.162672822955619356e+00 5.139844471873447951e+00 -3.162672822955619356e+00 -3.793211265508112007e+01 -2.173039644802298831e+00 5.139844471873447951e+00 -2.173039644802298831e+00 -1.880380585872244126e+01
-2.318487563600571022e+01 -3.451793729547889544e+00 -6.898875354165470153e-01 -3.451793729547889544e+00 -2.556733155397661150e+01 -2.356726854750079525e+01 -6.898875354165470153e-01 -2.356726854750079525e+01 -2.184998708266022049e+01
-3.320786541719722607e+01 -9.257053457848792632e+00 3.465191792106277813e+00 -9.257053457848792632e+00 -2.119438263502326691e+01 3.244544995470953985e+00 3.465191792106277813e+00 3.244544995470953985e+00 -2.740501264813204330e+01
6.929385663893226521e+00 -1.371696222959906675e-01 -9.201460403061812343e+00 -1.371696222959906675e-01 -9.069966840642265993e+00 4.770261578889370746e+00 -9.201460403061812343e+00 4.770261578889370746e+00 -9.828888156219200312e+00
-1.207475935157487967e+01 -2.809066425158833535e+00 -4.726750631375698397e+00 -2.809066425158833535e+00 -4.036968580005298435e+01 2.835322843090054779e+00 -4.726750631375698397e+00 2.835322843090054779e+00 -1.047958508684537726e+01
2.602112648126906791e+00 2.695475117812127230e+00 2.249968700621315154e+00 2.695475117812127230e+00 -1.881162385656477554e+01 -1.024504517242272073e+01 2.249968700621315154e+00 -1.024504517242272073e+01 6.235054160072674989e+00
-1.258531277295664097e+01 2.818846419606474640e+00 1.203940789208525253e+01 2.818846419606474640e+00 -1.086320004222933555e+01 6.215710259146065120e+00 1.203940789208525253e+01 6.215710259146065120e+00 -1.264971411389396572e+01
-8.861753439544875377e+00 1.734479052184272163e+01 -1.485917366230351178e+01 1.734479052184272163e+01 -1.525198699148303483e+01 -3.231116338150550327e+00 -1.485917366230351178e+01 -3.231116338150550327e+00 -2.730911494194141653e+01
3.609083184041508741e+00 1.227085262594404647e+01 -1.760709297303759513e+01 1.227085262594404647e+01 -1.023097796891386757e+01 -7.336900268742979847e+00 -1.760709297303759513e+01 -7.336900268742979847e+00 -8.170151653757875110e+00
4.915357625691377130e+00 -7.012836797989902671e+00 4.518007088183474962e-01 -7.012836797989902671e+00 2.951500710802444161e+01 1.656014536274884597e+00 4.518007088183474962e-01 1.656014536274884597e+00 -6.775211062395102957e+00
-6.071441826577657963e+00 -1.389886747004626333e+00 4.373062967952727753e+00 -1.389886747004626333e+00 -1.472761617675545587e+01 5.565311812593992435e+00 4.373062967952727753e+00 5.565311812593992435e+00 -3.008754305326378642e+01
-2.021368569429775874e+01 -2.300967662726414176e+00 -3.462237296005198584e+00 -2.300967662726414176e+00 -4.496469393384516167e+01 3.138618456484435715e+00 -3.462237296005198584e+00 3.138618456484435715e+00 -2.150772215389431352e+01
-1.848113707280360885e+01 3.057172366564345545e+00 7.411590000189948846e+00 3.057172366564345545e+00 -2.843812127547253965e+01 2.455750731662489361e+00 7.411590000189948846e+00 2.455750731662489361e+00 -3.576358849420758190e+01
-2.394658802223435856e+01 5.164096571582871498e+00 -9.377336763028537803e+00 5.164096571582871498e+00 -3.381881559734702591e+01 -8.369093226879549263e+00 -9.377336763028537803e+00 -8.369093226879549263e+00 -2.090486523256837970e+01
-3.627232688815393402e+01 -5.625506427158161848e+00 -1.037105504993611049e+01 -5.625506427158161848e+00 -2.132484453548625680e+01 3.629803651110055096e+00 -1.037105504993611049e+01 3.629803651110055096e+00 -3.950970580869416438e+01
-3.603826804262493511e+01 -2.798042021320883865e+00 -7.893894106316450276e+00 -2.798042021320883865e+00 -3.021070295803959027e+01 1.256793484033204145e+01 -7.893894106316450276e+00 1.256793484033204145e+01 -4.205665110830768327e+01
-2.513813407952521928e+01 1.735495154498410297e+00 3.177333922317768344e+00 1.735495154498410297e+00 -3.926646245321954609e+01 9.749454540343901243e+00 3.177333922317768344e+00 9.749454540343901243e+00 -3.784843525335570291e+01
-2.646704279791992676e+01 -9.278540225245830442e+00 -4.723176237018094525e+00 -9.278540225245830442e+00 4.943894213936059323e+00 -1.128435762572930479e+01 -4.723176237018094525e+00 -1.128435762572930479e+01 -2.055836110660163030e+01
-4.572613679803987452e+01 -1.015246968800141980e+00 -6.353390326948602507e+00 -1.015246968800141980e+00 -2.317574981173342863e+01 1.346637821916766420e+01 -6.353390326948602507e+00 1.346637821916766420e+01 -3.126825461269506690e+01
-7.902660338024961817e+00 8.819399659535726244e+00 -1.756102600518911316e+01 8.819399659535726244e+00 -5.780700979141462525e+00 -2.075684451493080829e+01 -1.756102600518911316e+01 -2.075684451493080829e+01 -3.626879706004206838e+00
-4.024145690206886883e+01 1.206466719252962072e+01 1.660460960898119254e+01 1.206466719252962072e+01 -1.055343086236454120e+01 -3.417336374236107588e+00 1.660460960898119254e+01 -3.417336374236107588e+00 -3.619190082139686382e+01
-1.095870803176681108e+01 -6.483639421825182048e+00 -2.904079967190461797e+00 -6.483639421825182048e+00 -9.581894513727258200e+00 2.918062836066435572e+00 -2.904079967190461797e+00 2.918062836066435572e+00 -6.889249333787507368e+00
-4.111801021457136329e+01 2.909221262003651276e+00 3.219088646440971591e+00 2.909221262003651276e+00 -3.150030946905465257e+01 5.580117817727745511e+00 3.219088646440971591e+00 5.580117817727745511e+00 -4.218674651423474842e+01
-3.403996051042076232e+01 5.850707458069730471e+00 -2.371266852304451778e+00 5.850707458069730471e+00 -3.355766334370547099e+01 6.102898715314646338e+00 -2.371266852304451778e+00 6.102898715314646338e+00 -8.269257507483555258e+00
-4.520778684284991300e+01 -2.860752324584677098e+00 5.191971449812582406e+00 -2.860752324584677098e+00 -3.066456220417497036e+01 -1.488821580426037983e+01 5.191971449812582406e+00 -1.488821580426037983e+01 -3.965994787723303716e+01
-2.217572742126011676e+01 -8.992230020856666783e+00 1.174399210684790873e+01 -8.992230020856666783e+00 -3.094717285040451316e+01 -8.276266040001418745e-01 1.174399210684790873e+01 -8.276266040001418745e-01 -3.867403314779359391e+01
-1.511112381079581546e+01 1.373175561828603231e+00 6.117530095943187085e+00 1.373175561828603231e+00 -5.143316213162484019e+01 -3.279796493447157513e+00 6.117530095943187085e+00 -3.279796493447157513e+00 -3.980516919005221865e+01
-2.880007419436387295e+01 3.320542189502680319e+00 5.758419126023993861e+00 3.320542189502680319e+00 -2.448315885890641752e+01 4.923526230662742087e+00 5.758419126023993861e+00 4.923526230662742087e+00 -2.242782621595075909e+01
-1.453313277001050707e+01 2.999313866769917070e+00 7.401350768663466972e+00 2.999313866769917070e+00 -5.888401763013120416e+01 3.978651595053686485e+00 7.401350768663466972e+00 3.978651595053686485e+00 -4.755597388872716635e+01
-2.480391030910252326e+01 1.483121718846775350e+00 1.374461889018601113e+01 1.483121718846775350e+00 -2.253533350227170473e+01 1.134490411658366149e+01 1.374461889018601113e+01 1.134490411658366149e+01 -1.821782340642037212e+01
-2.713824901908714438e+01 6.722844642067323129e+00 5.307255494570483734e+00 6.722844642067323129e+00 -1.833460669234261431e+01 4.895342714731933498e+00 5.307255494570483734e+00 4.895342714731933498e+00 -2.000909254284466243e+01
-2.253757796076427056e+01 -1.500468751382377341e+01 -4.775766784081576510e+00 -1.500468751382377341e+01 8.332259393381900026e+00 -6.550889171533292199e+00 -4.775766784081576510e+00 -6.550889171533292199e+00 -1.983062558224610328e+01
-1.338026538661067377e+01 -9.718011972193679071e+00 -3.041920489198540523e+00 -9.718011972193679071e+00 -2.679485385372343842e+01 9.605331532207525669e+00 -3.041920489198540523e+00 9.605331532207525669e+00 -2.322551715306854447e+01
-3.228832327069937946e+01 3.008953673801576745e+00 -2.336589605330125607e+00 3.008953673801576745e+00 -3.741088736541943405e+01 9.323831231717235823e+00 -2.336589605330125607e+00 9.323831231717235823e+00 -3.142252508757815477e+01
-6.658913117446005003e+00 1.029725732428989460e+01 3.143123547587609146e+00 1.029725732428989460e+01 -1.305322810781269105e+01 1.009131709152863898e+01 3.143123547587609146e+00 1.009131709152863898e+01 -1.732085874913364165e+01